/*--------------------------------*- C++ -*----------------------------------*\
| =========                 |                                                 |
| \\      /  F ield         | OpenFOAM: The Open Source CFD Toolbox           |
|  \\    /   O peration     | Version:  4.1                                   |
|   \\  /    A nd           | Web:      www.OpenFOAM.org                      |
|    \\/     M anipulation  |                                                 |
\*---------------------------------------------------------------------------*/
FoamFile
{
    version     2.0;
    format      ascii;
    class       volScalarField;
    location    "300";
    object      p;
}
// * * * * * * * * * * * * * * * * * * * * * * * * * * * * * * * * * * * * * //

dimensions      [0 2 -2 0 0 0 0];

internalField   nonuniform List<scalar> 
12100
(
-0.192787
-0.164173
-0.158358
-0.158673
-0.150547
-0.142054
-0.133253
-0.123986
-0.11467
-0.105689
-0.0967737
-0.0876476
-0.0784641
-0.0693668
-0.0604381
-0.0517565
-0.0433906
-0.0354093
-0.0278808
-0.0208662
-0.0144187
-0.0085852
-0.00340726
0.00107782
0.00483832
0.00785118
0.010101
0.0115706
0.0122608
0.0122002
0.0114429
0.0100671
0.00818108
0.00592395
0.00345453
0.000938223
-0.00146986
-0.00364094
-0.00549024
-0.00699037
-0.00816977
-0.00909414
-0.00983715
-0.0104539
-0.0109657
-0.0113629
-0.0116245
-0.0117012
-0.0116384
-0.0113123
-0.1708
-0.167769
-0.164961
-0.16202
-0.153603
-0.144267
-0.138991
-0.132967
-0.123403
-0.113815
-0.104799
-0.0958777
-0.086873
-0.0775904
-0.0681928
-0.0588909
-0.0498192
-0.0410919
-0.0328006
-0.0250173
-0.0178038
-0.0112156
-0.00530202
-0.000106013
0.00433455
0.00798608
0.0108192
0.0128119
0.0139575
0.0142684
0.0137805
0.0125589
0.0107038
0.008349
0.00565769
0.00281383
6.2447e-06
-0.00259116
-0.00484338
-0.00667894
-0.00810336
-0.00918899
-0.0100391
-0.010744
-0.0113528
-0.0118647
-0.0122586
-0.0124674
-0.0125279
-0.0123161
-0.17356
-0.169974
-0.168732
-0.168035
-0.165339
-0.156561
-0.143465
-0.133824
-0.130575
-0.126625
-0.117779
-0.107962
-0.0983476
-0.0884558
-0.0785132
-0.0685329
-0.0586109
-0.0489269
-0.0396364
-0.0308516
-0.022647
-0.0150791
-0.00820159
-0.00206555
0.00328263
0.00779838
0.0114383
0.0141648
0.0159493
0.0167796
0.0166682
0.0156612
0.0138463
0.0113558
0.00836613
0.0050891
0.00175624
-0.001402
-0.00418425
-0.00645551
-0.00818277
-0.00944125
-0.0103746
-0.0111293
-0.0118046
-0.0124278
-0.0129722
-0.0133598
-0.0135709
-0.0135418
-0.174503
-0.173228
-0.17154
-0.169776
-0.17013
-0.169247
-0.162398
-0.151064
-0.139845
-0.131868
-0.127587
-0.12289
-0.114149
-0.103021
-0.0916412
-0.0802144
-0.0690094
-0.0580949
-0.0475579
-0.0375187
-0.0280887
-0.0193521
-0.0113695
-0.00418575
0.00215744
0.00761075
0.0121193
0.0156284
0.0180883
0.0194622
0.0197371
0.018936
0.0171287
0.0144423
0.0110647
0.0072387
0.00324604
-0.000614
-0.00405246
-0.006839
-0.00887514
-0.0102428
-0.0111591
-0.0118633
-0.0125255
-0.0132128
-0.0138906
-0.0144529
-0.0148366
-0.0149748
-0.191962
-0.191013
-0.189293
-0.183461
-0.175776
-0.16765
-0.160751
-0.156254
-0.153142
-0.150229
-0.144026
-0.136155
-0.129286
-0.12236
-0.111749
-0.0986373
-0.0851203
-0.0719419
-0.0595183
-0.0478201
-0.0367823
-0.0264739
-0.0170144
-0.00846555
-0.000844975
0.00581733
0.0114675
0.0160389
0.0194602
0.0216658
0.0226068
0.0222667
0.0206793
0.0179474
0.0142552
0.00986803
0.00511436
0.000367401
-0.00397682
-0.00754236
-0.0100763
-0.0115904
-0.0123745
-0.012844
-0.0133287
-0.0139963
-0.0148114
-0.0155826
-0.0162278
-0.0166148
-0.199193
-0.19995
-0.201093
-0.196886
-0.186565
-0.17365
-0.160179
-0.147657
-0.143751
-0.147243
-0.153841
-0.157387
-0.151385
-0.141558
-0.132306
-0.12244
-0.108726
-0.0927291
-0.0770921
-0.0628047
-0.0496406
-0.0373537
-0.0259969
-0.015674
-0.00641444
0.0017757
0.00887148
0.0148151
0.0195204
0.0228899
0.0248305
0.0252709
0.0241834
0.0216102
0.0177022
0.0127419
0.00711206
0.00127724
-0.00422134
-0.00880476
-0.0120031
-0.0137127
-0.0142756
-0.0142907
-0.0143174
-0.01475
-0.0156534
-0.0166366
-0.0176684
-0.0184802
-0.197837
-0.198831
-0.199481
-0.201981
-0.201606
-0.194722
-0.180106
-0.159509
-0.139364
-0.131029
-0.139251
-0.151892
-0.161535
-0.164275
-0.157724
-0.146746
-0.134092
-0.119413
-0.101139
-0.0832457
-0.066794
-0.0519303
-0.0384076
-0.0260743
-0.0149172
-0.0049566
0.00380944
0.0113525
0.0175851
0.0223841
0.0256124
0.0271292
0.0268378
0.0247145
0.0208438
0.01547
0.00894276
0.00172104
-0.00549929
-0.0117743
-0.0160391
-0.017759
-0.0175141
-0.0164744
-0.0154805
-0.0154657
-0.0163309
-0.0174898
-0.0190657
-0.0205645
-0.213911
-0.217559
-0.210252
-0.209426
-0.210754
-0.210046
-0.20626
-0.199269
-0.188203
-0.173115
-0.157115
-0.149719
-0.156117
-0.167754
-0.175173
-0.174201
-0.164752
-0.150667
-0.132518
-0.112755
-0.091511
-0.0722336
-0.0554421
-0.0405243
-0.027134
-0.0151818
-0.00457282
0.00473589
0.0126799
0.0191316
0.0239056
0.0267863
0.0276077
0.026144
0.0223414
0.0165977
0.00941268
0.00110564
-0.00784489
-0.0165919
-0.0232313
-0.025766
-0.0243162
-0.0210011
-0.0175545
-0.0159116
-0.0162513
-0.0178429
-0.0202514
-0.0228178
-0.207062
-0.220703
-0.219045
-0.223817
-0.228009
-0.231039
-0.232693
-0.232051
-0.228467
-0.221799
-0.21186
-0.199643
-0.189647
-0.186169
-0.18936
-0.194003
-0.194022
-0.185536
-0.169848
-0.148527
-0.125276
-0.101128
-0.0795764
-0.0607375
-0.0442714
-0.0299027
-0.0172629
-0.00610729
0.00361016
0.0117954
0.0181776
0.0225326
0.0246926
0.0241136
0.0206288
0.0145053
0.0061885
-0.00391801
-0.0151645
-0.0260704
-0.0350226
-0.0385112
-0.0356744
-0.0293221
-0.021408
-0.0164614
-0.0154795
-0.0171637
-0.020667
-0.0250523
-0.163155
-0.184433
-0.196657
-0.208971
-0.220883
-0.231555
-0.241233
-0.249427
-0.255818
-0.259549
-0.259878
-0.25681
-0.250498
-0.241788
-0.234327
-0.229824
-0.227322
-0.221738
-0.209812
-0.190054
-0.165604
-0.138231
-0.111892
-0.0878287
-0.0671261
-0.0496931
-0.034818
-0.0218843
-0.0105811
-0.000921705
0.00681879
0.0127568
0.0167531
0.017847
0.0149569
0.00819663
-0.00183965
-0.0150973
-0.0314166
-0.0493974
-0.0631968
-0.0655491
-0.0577974
-0.044785
-0.0276834
-0.0166393
-0.0130641
-0.0144181
-0.0195069
-0.0271119
-0.114842
-0.129486
-0.146838
-0.165816
-0.185871
-0.205647
-0.224786
-0.242906
-0.26006
-0.275721
-0.289369
-0.300073
-0.306669
-0.308454
-0.304687
-0.29739
-0.287086
-0.275363
-0.261743
-0.242273
-0.215459
-0.18569
-0.153832
-0.123337
-0.0969852
-0.0754089
-0.0578659
-0.0432676
-0.0308486
-0.0204111
-0.0118962
-0.00447847
0.00124043
0.00482908
0.0034434
-0.00310157
-0.0143567
-0.0310723
-0.0548555
-0.0848648
-0.112455
-0.11993
-0.105741
-0.077126
-0.0421667
-0.018687
-0.00887345
-0.00855908
-0.0151974
-0.0281183
-0.0951621
-0.097799
-0.107146
-0.121312
-0.140956
-0.164344
-0.190045
-0.216278
-0.242178
-0.267538
-0.292635
-0.3164
-0.338113
-0.356217
-0.368606
-0.373064
-0.367518
-0.353315
-0.333339
-0.308219
-0.277606
-0.242801
-0.205387
-0.168285
-0.134981
-0.108058
-0.0871999
-0.070858
-0.0578776
-0.0478146
-0.0398578
-0.0319811
-0.0242344
-0.018381
-0.0166941
-0.0206833
-0.0306597
-0.0483488
-0.0777421
-0.120284
-0.16592
-0.190556
-0.17489
-0.123576
-0.0668727
-0.0262266
-0.00549626
-0.000793675
-0.00923831
-0.0275579
-0.117004
-0.107614
-0.104808
-0.106723
-0.11603
-0.131949
-0.154117
-0.180039
-0.208186
-0.237892
-0.269127
-0.301645
-0.335151
-0.36852
-0.399615
-0.425358
-0.441232
-0.441762
-0.425382
-0.39328
-0.353043
-0.309749
-0.264699
-0.219808
-0.17767
-0.14421
-0.119962
-0.102535
-0.0902641
-0.0824657
-0.0776895
-0.0724916
-0.0647958
-0.0561974
-0.0487134
-0.0462767
-0.0506597
-0.0634735
-0.0890767
-0.133638
-0.190333
-0.227207
-0.218278
-0.162095
-0.0922201
-0.0384259
-0.00816394
0.0016679
-0.00580056
-0.0283299
-0.158566
-0.148114
-0.143879
-0.140128
-0.136571
-0.134011
-0.135925
-0.145812
-0.164065
-0.188981
-0.219811
-0.255956
-0.296899
-0.341647
-0.388189
-0.432898
-0.471392
-0.498603
-0.505726
-0.485833
-0.444152
-0.393138
-0.338412
-0.281939
-0.228939
-0.185268
-0.154989
-0.135664
-0.124978
-0.121517
-0.123252
-0.125704
-0.12297
-0.111838
-0.0950925
-0.081857
-0.0751282
-0.076007
-0.0886987
-0.118932
-0.16546
-0.202136
-0.202365
-0.157286
-0.0985757
-0.050184
-0.0209175
-0.0104125
-0.0157179
-0.0322196
-0.160111
-0.166905
-0.1754
-0.177509
-0.175226
-0.169682
-0.156836
-0.148281
-0.15287
-0.169479
-0.194343
-0.22647
-0.265601
-0.310838
-0.362145
-0.415508
-0.464136
-0.50492
-0.528127
-0.526339
-0.495975
-0.448238
-0.391729
-0.330323
-0.270561
-0.220004
-0.185757
-0.165004
-0.157544
-0.160449
-0.173419
-0.189212
-0.195578
-0.184383
-0.156226
-0.125176
-0.100702
-0.0846675
-0.0796273
-0.0862224
-0.10368
-0.125106
-0.129718
-0.112986
-0.0842719
-0.0572484
-0.0410447
-0.035037
-0.0381752
-0.0440126
-0.140454
-0.148245
-0.158112
-0.17128
-0.185388
-0.187859
-0.181798
-0.177818
-0.183428
-0.19807
-0.219961
-0.248593
-0.284665
-0.327016
-0.373435
-0.420266
-0.4627
-0.496644
-0.515081
-0.510303
-0.482314
-0.437744
-0.382822
-0.322507
-0.265269
-0.220743
-0.190761
-0.174843
-0.172983
-0.186446
-0.216767
-0.251668
-0.269705
-0.257531
-0.212032
-0.15625
-0.111494
-0.0794172
-0.0587162
-0.048008
-0.0464858
-0.0509513
-0.0548787
-0.0577192
-0.0586474
-0.0600117
-0.0645202
-0.0685009
-0.0684869
-0.0612751
-0.160173
-0.169206
-0.173795
-0.179361
-0.185356
-0.189074
-0.191754
-0.198622
-0.212651
-0.232618
-0.257709
-0.286931
-0.319689
-0.35557
-0.391973
-0.425349
-0.451602
-0.467417
-0.469971
-0.454067
-0.420282
-0.373911
-0.32089
-0.267488
-0.221575
-0.188831
-0.169187
-0.164403
-0.173847
-0.201443
-0.250819
-0.296397
-0.315551
-0.289371
-0.223794
-0.152764
-0.0950059
-0.0555307
-0.0284631
-0.0107857
-0.00111632
9.05806e-05
-0.00673558
-0.0213031
-0.0417075
-0.0652431
-0.0937384
-0.112662
-0.11457
-0.0829029
-0.176218
-0.180692
-0.177338
-0.176884
-0.179418
-0.185147
-0.197855
-0.217247
-0.239328
-0.261669
-0.285339
-0.311083
-0.337492
-0.363293
-0.386352
-0.40403
-0.413367
-0.411423
-0.394978
-0.366386
-0.326826
-0.280499
-0.233015
-0.190527
-0.158741
-0.139778
-0.133764
-0.141751
-0.165317
-0.2058
-0.257286
-0.298669
-0.30399
-0.26036
-0.187653
-0.116846
-0.0620804
-0.0253777
-0.000164352
0.0167857
0.0272016
0.0297542
0.0196309
-0.00217053
-0.0342473
-0.0729706
-0.121297
-0.153646
-0.146947
-0.0985716
-0.175816
-0.176527
-0.176484
-0.180206
-0.190666
-0.207631
-0.226469
-0.244087
-0.261307
-0.278244
-0.295084
-0.311999
-0.327991
-0.341303
-0.349748
-0.351234
-0.343472
-0.32485
-0.298091
-0.262791
-0.222297
-0.181231
-0.144481
-0.11613
-0.0986749
-0.0926823
-0.0976143
-0.113843
-0.142858
-0.184289
-0.228718
-0.254456
-0.242538
-0.193007
-0.130078
-0.070829
-0.0286675
-0.000409432
0.0189864
0.0315695
0.0382108
0.0373125
0.0282824
0.0057494
-0.0289541
-0.0726571
-0.12013
-0.147508
-0.132686
-0.0865481
-0.177743
-0.183989
-0.193018
-0.20527
-0.220213
-0.234796
-0.247113
-0.257222
-0.266533
-0.275843
-0.284635
-0.292306
-0.297253
-0.297798
-0.292303
-0.279607
-0.259235
-0.23163
-0.198602
-0.162558
-0.127128
-0.0960082
-0.0721416
-0.0571046
-0.0514475
-0.0542789
-0.0649535
-0.0836478
-0.111252
-0.145289
-0.174634
-0.18248
-0.162129
-0.120581
-0.0730529
-0.0325244
-0.00384485
0.0154653
0.0283564
0.0360114
0.0386814
0.0360771
0.0267544
0.00734472
-0.0208668
-0.0553719
-0.080968
-0.0867434
-0.0786973
-0.0586131
-0.200694
-0.206563
-0.220808
-0.232341
-0.240048
-0.245181
-0.248822
-0.251986
-0.254825
-0.257248
-0.258433
-0.257043
-0.251216
-0.239618
-0.222375
-0.199472
-0.171374
-0.140201
-0.108111
-0.0777
-0.0515942
-0.031847
-0.0194296
-0.0142059
-0.0171126
-0.024424
-0.0371871
-0.0550603
-0.0775768
-0.101094
-0.116031
-0.113576
-0.0952557
-0.0664948
-0.0332983
-0.00724525
0.0105996
0.0226291
0.0302733
0.0339684
0.0336653
0.0291284
0.0194848
0.00523472
-0.013002
-0.0322909
-0.0454855
-0.0489472
-0.0462517
-0.0395482
-0.235632
-0.2337
-0.241157
-0.240329
-0.238186
-0.235154
-0.233233
-0.231346
-0.229427
-0.226348
-0.220526
-0.210567
-0.19568
-0.175423
-0.150281
-0.121687
-0.0916953
-0.0624549
-0.0360375
-0.0141964
0.00188616
0.0115641
0.0151258
0.0131166
0.00644264
-0.00374821
-0.0171441
-0.0331498
-0.0510472
-0.0675514
-0.0728035
-0.0657925
-0.0515128
-0.0303587
-0.00889276
0.00666295
0.0171683
0.0242112
0.0281628
0.0290517
0.0268271
0.0214196
0.0129941
0.00223292
-0.0100551
-0.0219148
-0.0308135
-0.0346069
-0.0336438
-0.0302616
-0.253174
-0.236102
-0.235942
-0.222091
-0.21697
-0.210708
-0.206482
-0.202539
-0.19745
-0.18954
-0.177425
-0.159917
-0.137065
-0.110354
-0.0816874
-0.0531039
-0.0265348
-0.00358215
0.0145822
0.0272866
0.0345999
0.0363836
0.0338804
0.0274445
0.0180294
0.00628586
-0.0076271
-0.0227994
-0.0366409
-0.0446769
-0.0431262
-0.0339246
-0.0224708
-0.00835519
0.00419271
0.0130497
0.0190665
0.0228403
0.0242996
0.0233949
0.0201602
0.0147013
0.0073258
-0.00137733
-0.010511
-0.0187379
-0.0244094
-0.0266257
-0.0260217
-0.0242058
-0.23698
-0.208175
-0.204035
-0.191771
-0.186278
-0.182456
-0.179505
-0.17485
-0.166701
-0.153435
-0.134105
-0.109187
-0.0810536
-0.0521441
-0.024718
-0.000453779
0.0195214
0.0345582
0.0445407
0.0494667
0.0499719
0.0464734
0.0396303
0.0299636
0.017892
0.00508587
-0.00736999
-0.0175561
-0.0239869
-0.0244782
-0.0203269
-0.0137576
-0.00551733
0.00298399
0.0100654
0.0151443
0.0184687
0.0201169
0.0199778
0.0180488
0.0144305
0.00932259
0.00309435
-0.00369177
-0.0102827
-0.0157696
-0.0193694
-0.0209037
-0.0209249
-0.0203669
-0.193367
-0.170733
-0.166082
-0.161986
-0.161708
-0.162283
-0.160839
-0.153846
-0.139702
-0.117706
-0.0901487
-0.0601484
-0.0306152
-0.0039489
0.0183606
0.0356644
0.047797
0.0549202
0.0576341
0.0562039
0.0511043
0.0432184
0.0334745
0.0229557
0.0127008
0.00313902
-0.00428451
-0.00869586
-0.00996234
-0.00984598
-0.00684451
-0.00222822
0.00306563
0.00812196
0.0122574
0.0151351
0.0167153
0.0169741
0.015867
0.0134384
0.00982917
0.00527574
0.000135767
-0.00511527
-0.00992369
-0.0137527
-0.0162632
-0.0174668
-0.0177341
-0.017554
-0.150511
-0.144405
-0.146601
-0.151462
-0.157291
-0.159332
-0.153506
-0.137344
-0.112358
-0.0819566
-0.0500521
-0.019938
0.00623344
0.0271767
0.0424157
0.052172
0.0569627
0.0575328
0.0547068
0.049506
0.0424311
0.0343378
0.0258354
0.0179319
0.0110054
0.00483469
0.00152621
-0.000272409
-0.00198474
-0.00167291
0.00061606
0.00382866
0.00722368
0.0102982
0.0126596
0.0140822
0.0145023
0.0138962
0.0122615
0.00967253
0.0062894
0.00234919
-0.0018385
-0.00590435
-0.0094687
-0.0122227
-0.0140277
-0.0149593
-0.0152852
-0.0153105
-0.140595
-0.145647
-0.154153
-0.163349
-0.168624
-0.164099
-0.14724
-0.11966
-0.086747
-0.0532383
-0.0227453
0.00255205
0.0218596
0.0352646
0.0434427
0.0473685
0.0480001
0.0461884
0.0426232
0.0380728
0.0327284
0.0264326
0.0205923
0.0155236
0.0110071
0.00720331
0.00437999
0.00309366
0.00238848
0.00300747
0.00473823
0.00690187
0.00903708
0.0108385
0.012061
0.0125595
0.0122771
0.0111954
0.00934115
0.00680701
0.00375675
0.000401688
-0.00300585
-0.00618865
-0.00889116
-0.0109414
-0.0123041
-0.0130628
-0.0134131
-0.0135323
-0.1579
-0.162789
-0.1694
-0.173536
-0.172163
-0.159037
-0.133647
-0.101073
-0.0679546
-0.0385378
-0.0143813
0.00413523
0.0174507
0.0264498
0.0319988
0.0348607
0.0356602
0.0348671
0.0328501
0.0299594
0.0266055
0.0221696
0.0180653
0.014375
0.0109986
0.00817987
0.00628108
0.00539549
0.00518628
0.00573317
0.00687489
0.00823202
0.00950487
0.0104753
0.010971
0.0108925
0.0101949
0.00887481
0.00698467
0.0046177
0.00193352
-0.000910756
-0.00370191
-0.00622655
-0.00831934
-0.00989309
-0.0109581
-0.0115769
-0.0119093
-0.0120214
-0.158389
-0.158544
-0.160431
-0.162463
-0.157167
-0.140248
-0.114108
-0.0853074
-0.05857
-0.0358377
-0.0174707
-0.00297459
0.00809706
0.0161311
0.0216071
0.0249589
0.0265557
0.0266943
0.025686
0.0238119
0.0211995
0.0181125
0.0151264
0.0124164
0.0100635
0.00824763
0.00710109
0.00660228
0.00663132
0.00712571
0.00793601
0.00880701
0.00951927
0.0099132
0.00987034
0.00935209
0.00832357
0.00680985
0.00488845
0.00264749
0.000248045
-0.00218046
-0.0044785
-0.00647566
-0.00807904
-0.00926301
-0.010059
-0.0105082
-0.0107643
-0.0107524
-0.158211
-0.156518
-0.154118
-0.14873
-0.136753
-0.118856
-0.0973067
-0.0751813
-0.0541783
-0.0356484
-0.0202961
-0.00793624
0.00180211
0.00914924
0.0143582
0.0177108
0.0194954
0.0199892
0.0194556
0.0181466
0.0163151
0.0142344
0.0121717
0.0103166
0.00878543
0.00767721
0.00705397
0.00689963
0.00713328
0.00764688
0.0082902
0.00887756
0.00925035
0.00929325
0.00892766
0.00815966
0.00693773
0.00533122
0.00342114
0.00129931
-0.000908453
-0.00296858
-0.00489472
-0.00651968
-0.00778948
-0.00871223
-0.00931694
-0.00964088
-0.0097932
-0.00967973
-0.142579
-0.138652
-0.133069
-0.127619
-0.119298
-0.108086
-0.0941803
-0.0785374
-0.0624173
-0.0470087
-0.0330398
-0.0208611
-0.0105969
-0.00224687
0.00426968
0.00910026
0.0124341
0.0144821
0.0154615
0.0155827
0.0150446
0.0140517
0.0128094
0.0114993
0.0102592
0.00919526
0.00838764
0.00787389
0.0076431
0.00764765
0.00780888
0.0080161
0.00814977
0.00808929
0.00781081
0.00720622
0.0062635
0.0050309
0.00353616
0.0018273
7.91466e-05
-0.00163993
-0.00335301
-0.0048667
-0.00612459
-0.00711427
-0.00781101
-0.00829228
-0.00844107
-0.00860485
-0.162457
-0.144928
-0.134608
-0.128023
-0.11788
-0.10697
-0.095281
-0.0825488
-0.069111
-0.0557416
-0.0430622
-0.0314754
-0.0212254
-0.0124383
-0.00515537
0.000657624
0.00509021
0.0082798
0.0103846
0.0115738
0.0120235
0.0119114
0.0114151
0.0106989
0.00990464
0.00914604
0.00850862
0.00804637
0.0077766
0.00768181
0.0077157
0.0078072
0.00787565
0.00784292
0.00760708
0.00710702
0.00639602
0.00541444
0.00419337
0.00277514
0.00127227
-0.000311752
-0.00186321
-0.00330707
-0.00457067
-0.00562346
-0.00642118
-0.00704956
-0.00731678
-0.00771153
-0.191095
-0.166061
-0.146532
-0.134149
-0.121209
-0.109474
-0.0980233
-0.0866329
-0.0750639
-0.0634545
-0.0520907
-0.0412814
-0.0312982
-0.0223402
-0.0145358
-0.00794323
-0.00255973
0.0016769
0.00486125
0.00711284
0.00856529
0.00936047
0.00964969
0.00957774
0.0092776
0.00886617
0.0084385
0.00806477
0.00778765
0.0076207
0.0075499
0.00753692
0.00752721
0.00745982
0.00725894
0.00690804
0.00635729
0.00559446
0.00462364
0.0034706
0.00219632
0.000847622
-0.000527566
-0.00185469
-0.00307055
-0.00413413
-0.00499303
-0.00571363
-0.00608997
-0.00662174
-0.18534
-0.172426
-0.154577
-0.141343
-0.127368
-0.115036
-0.103332
-0.0922402
-0.0814126
-0.0707456
-0.0602756
-0.0501362
-0.0405121
-0.0315831
-0.0235056
-0.016389
-0.0102879
-0.00521252
-0.00112309
0.00206199
0.00442757
0.00608381
0.00714933
0.00775162
0.00801103
0.00803952
0.00793415
0.0077725
0.00761145
0.00748507
0.00740368
0.00735554
0.00731155
0.00723139
0.0070664
0.00678374
0.00635154
0.00574938
0.00497325
0.00403376
0.00296573
0.0018122
0.000608311
-0.000586987
-0.00172191
-0.00275329
-0.00363139
-0.00439885
-0.00486462
-0.00547772
-0.166928
-0.165827
-0.154277
-0.144421
-0.132315
-0.12044
-0.109036
-0.0980884
-0.0875973
-0.077429
-0.0675299
-0.0579072
-0.0486486
-0.0398737
-0.0317198
-0.0243048
-0.0177171
-0.0120154
-0.00720171
-0.00323937
-9.10561e-05
0.00234177
0.00413798
0.00539745
0.00622949
0.00673587
0.00701101
0.0071337
0.00716875
0.00716336
0.00714514
0.00712267
0.00708696
0.00701644
0.00688339
0.00665965
0.006319
0.00584256
0.00522202
0.00445958
0.00358213
0.00260573
0.00156731
0.000510476
-0.000521815
-0.0014891
-0.00234906
-0.00312329
-0.00364781
-0.00430176
-0.142656
-0.148945
-0.14405
-0.139581
-0.131626
-0.122634
-0.112776
-0.102561
-0.0927332
-0.083132
-0.0737611
-0.0646184
-0.0557565
-0.047246
-0.0391878
-0.0316851
-0.0248343
-0.0187097
-0.0133489
-0.00877271
-0.00495582
-0.00183578
0.00064151
0.00253778
0.00394766
0.00495713
0.00565997
0.00612931
0.00643174
0.00662118
0.00673643
0.00680085
0.00682198
0.0067949
0.00670697
0.00654087
0.00627818
0.00590347
0.00540947
0.00479779
0.00406949
0.00324621
0.00236609
0.00144908
0.000529569
-0.000354715
-0.0011698
-0.00192096
-0.00247602
-0.00314205
-0.113317
-0.124578
-0.125061
-0.12589
-0.123075
-0.118217
-0.111344
-0.103604
-0.0952972
-0.0866923
-0.0781035
-0.0696051
-0.0612742
-0.0531738
-0.0453865
-0.0380032
-0.0311144
-0.024799
-0.0191187
-0.0141146
-0.00979342
-0.00612367
-0.00307848
-0.00062021
0.00132095
0.00282288
0.0039592
0.00480038
0.00541041
0.0058445
0.00614704
0.0063503
0.00647391
0.00652618
0.00650596
0.00640742
0.0062217
0.00593638
0.00554776
0.00505484
0.0044607
0.00378263
0.00303717
0.0022495
0.00144354
0.000651244
-0.000101526
-0.000808281
-0.00136858
-0.00202177
-0.0804462
-0.0949013
-0.0994807
-0.104494
-0.106402
-0.106063
-0.103453
-0.0990365
-0.0931382
-0.0864645
-0.0793345
-0.0719482
-0.0644811
-0.0570522
-0.0497671
-0.042729
-0.0360326
-0.0297655
-0.0240003
-0.0187868
-0.0141526
-0.010131
-0.0067011
-0.00379895
-0.00140417
0.000529826
0.00206583
0.00326569
0.00418794
0.00488553
0.00540389
0.00577948
0.00603902
0.00619952
0.00626914
0.00624989
0.00614844
0.00594787
0.00565342
0.00526506
0.00478662
0.00422834
0.00360459
0.00293406
0.00223592
0.00153698
0.000855573
0.000206372
-0.000339616
-0.000959594
-0.0484071
-0.0633225
-0.0701903
-0.0781935
-0.0839611
-0.0876024
-0.0890672
-0.0883782
-0.0858487
-0.0818237
-0.0768351
-0.0711477
-0.0650138
-0.0586305
-0.0521518
-0.0457181
-0.0394485
-0.0334491
-0.0278095
-0.0225989
-0.0178649
-0.0136421
-0.00993294
-0.00672716
-0.00400119
-0.00172294
0.000150716
0.00166854
0.00288028
0.00383357
0.0045716
0.00513147
0.00554324
0.00582935
0.0060049
0.00607905
0.00605912
0.00594521
0.00573922
0.00544453
0.00506617
0.00461269
0.00409533
0.00352955
0.00293022
0.00232052
0.00171241
0.00112645
0.000607826
3.4065e-05
-0.0197488
-0.0331526
-0.0416644
-0.0506552
-0.0583845
-0.0647692
-0.0695951
-0.0724273
-0.0733586
-0.0724104
-0.0700507
-0.0665867
-0.0622809
-0.0573833
-0.0520923
-0.0465903
-0.0410333
-0.0355562
-0.0302732
-0.025275
-0.0206303
-0.0163888
-0.0125778
-0.00920679
-0.00627067
-0.00375223
-0.00162407
0.000148691
0.00160502
0.00278483
0.00372645
0.00446478
0.00503004
0.00544701
0.00573478
0.00590724
0.00597497
0.00594492
0.00582234
0.00561271
0.00532247
0.00495993
0.00453501
0.00406106
0.0035498
0.00302186
0.00248399
0.00196129
0.00147686
0.000955199
0.0023875
-0.00756221
-0.0158512
-0.0248024
-0.0336719
-0.041681
-0.0483143
-0.0536221
-0.0574269
-0.0593618
-0.0596303
-0.0585239
-0.0562719
-0.0531286
-0.0493112
-0.0450225
-0.0404448
-0.0357393
-0.0310456
-0.0264786
-0.0221284
-0.0180627
-0.0143285
-0.010954
-0.00795134
-0.00531895
-0.00304421
-0.00110568
0.000524079
0.00187575
0.00298087
0.00386985
0.00457057
0.00510745
0.00550091
0.0057673
0.00591971
0.00596865
0.00592252
0.00578895
0.00557571
0.00529159
0.00494594
0.00455095
0.00411619
0.00366067
0.00318685
0.0027236
0.00227543
0.00180674
0.0170154
0.0110602
0.00441664
-0.00319239
-0.0116145
-0.0201281
-0.0281946
-0.034939
-0.0403143
-0.0444607
-0.0469746
-0.0479994
-0.0477224
-0.0463585
-0.0441138
-0.0411842
-0.0377565
-0.0340041
-0.0300833
-0.026129
-0.0222504
-0.0185324
-0.0150382
-0.0118124
-0.00888271
-0.00626256
-0.00395324
-0.00194618
-0.00022541
0.00123001
0.00244377
0.00344037
0.00424365
0.00487572
0.0053563
0.00570231
0.00592794
0.00604539
0.00606502
0.00599626
0.00584811
0.0056296
0.00534995
0.00502083
0.00465036
0.00425654
0.00383837
0.00342792
0.00301425
0.00259561
0.0240183
0.0221096
0.0182819
0.0132401
0.00667919
-0.000750716
-0.00861653
-0.0161937
-0.0229442
-0.028533
-0.032821
-0.0357157
-0.0372819
-0.0376499
-0.0369896
-0.0354799
-0.0333001
-0.0306234
-0.02761
-0.0244048
-0.0211311
-0.017889
-0.0147577
-0.0117973
-0.0090504
-0.00654477
-0.00429492
-0.00230446
-0.000568385
0.000924708
0.00219053
0.0032472
0.00411375
0.00480893
0.0053505
0.00575463
0.00603556
0.00620589
0.00627689
0.00625898
0.0061621
0.00599522
0.00576769
0.00549075
0.00517171
0.00482762
0.00445514
0.00408862
0.00370485
0.00333037
0.0224017
0.023791
0.0229729
0.0212061
0.0176761
0.0127625
0.00663757
-0.000122378
-0.00693677
-0.0132462
-0.0186553
-0.0229297
-0.0259721
-0.027814
-0.0285701
-0.0283891
-0.0274271
-0.0258419
-0.0237846
-0.0213984
-0.0188129
-0.0161384
-0.0134662
-0.010869
-0.00840193
-0.00610485
-0.00400378
-0.00211311
-0.000437789
0.0010247
0.00228231
0.00334671
0.00423172
0.00495209
0.00552268
0.00595782
0.00627082
0.00647386
0.00657826
0.00659463
0.00653283
0.00640234
0.00621244
0.00597358
0.00569285
0.0053861
0.00504886
0.00471643
0.00435664
0.00401871
0.0144953
0.0182152
0.019481
0.0204527
0.0199913
0.0180971
0.0145542
0.00969236
0.00404978
-0.00171492
-0.00708543
-0.0117416
-0.0154962
-0.0182652
-0.0200512
-0.0209176
-0.0209611
-0.0203102
-0.0191024
-0.0174752
-0.0155582
-0.0134639
-0.0112871
-0.0091056
-0.00698117
-0.00496113
-0.00307952
-0.00135879
0.00018832
0.00155697
0.00274839
0.00376831
0.00462549
0.00533054
0.00589502
0.00633078
0.00664948
0.00686216
0.00697948
0.00701153
0.00696781
0.00685788
0.0066908
0.00647599
0.00622067
0.00593899
0.00562671
0.00531823
0.00497627
0.00466633
0.00686036
0.0105323
0.0122259
0.0144108
0.0156864
0.0159415
0.0147443
0.0121376
0.00849223
0.00437123
0.000213436
-0.00375677
-0.00734877
-0.0103489
-0.0125957
-0.0140404
-0.0147127
-0.0147061
-0.0141376
-0.0131262
-0.0117868
-0.0102217
-0.00851916
-0.0067544
-0.0049899
-0.0032758
-0.00165034
-0.000140906
0.00123449
0.0024656
0.00354841
0.00448372
0.0052759
0.00593173
0.00645956
0.00686864
0.00716864
0.00736918
0.0074797
0.00750949
0.00746764
0.00736305
0.00720437
0.00700019
0.00675789
0.00648948
0.00619225
0.0058975
0.00556711
0.00527612
0.00379103
0.00483811
0.00499689
0.00642632
0.00806487
0.00976019
0.0108939
0.0109039
0.00956013
0.00706859
0.00401805
0.000926823
-0.00192006
-0.00437482
-0.00633785
-0.0077918
-0.00871959
-0.0091298
-0.00906259
-0.00857665
-0.00774941
-0.00666486
-0.00540352
-0.00403701
-0.00262644
-0.0012222
0.00013567
0.00141679
0.00259944
0.00366934
0.00461841
0.00544354
0.00614544
0.00672765
0.0071957
0.00755643
0.00781757
0.00798721
0.00807358
0.00808502
0.00802988
0.00791628
0.00775231
0.00754603
0.00730477
0.00703822
0.00674626
0.00645494
0.00612986
0.00584818
0.0055797
0.00447954
0.0028523
0.00199434
0.00220985
0.00325841
0.00465145
0.0058431
0.00595561
0.00480243
0.00311284
0.00168824
0.000654943
-0.000315558
-0.00133593
-0.00238319
-0.00329445
-0.00390328
-0.00414052
-0.00401155
-0.00356761
-0.00287545
-0.00200055
-0.00100209
6.73372e-05
0.0011619
0.00224321
0.00328066
0.004251
0.00513767
0.0059298
0.00662131
0.00720993
0.00769638
0.00808364
0.00837629
0.0085801
0.00870156
0.00874764
0.00872562
0.00864298
0.00850668
0.00832503
0.00810496
0.00785369
0.00757879
0.00728326
0.00698622
0.00666109
0.00637974
0.00914898
0.00718984
0.00570245
0.00369596
0.0018203
0.00105542
0.00127732
0.00226272
0.00344376
0.00517131
0.00659167
0.00701908
0.00654166
0.0053271
0.00393316
0.00265188
0.00160665
0.000881688
0.000482932
0.000377977
0.000526009
0.000888572
0.00142663
0.00209772
0.00285784
0.00366553
0.00448484
0.00528621
0.00604628
0.00674734
0.00737682
0.00792658
0.00839214
0.008772
0.00906703
0.00927992
0.00941471
0.00947646
0.00947094
0.00940439
0.00928337
0.00911469
0.00890539
0.00866215
0.00839191
0.0081006
0.00779417
0.00748395
0.00715468
0.00686578
0.0110328
0.00889231
0.00921611
0.00803921
0.00569952
0.0037905
0.00294415
0.00304804
0.00629769
0.0130813
0.0180911
0.0180613
0.0149221
0.0112607
0.00863947
0.00708665
0.00613277
0.00548029
0.00501057
0.00470334
0.00457337
0.00463047
0.00486141
0.0052334
0.00570643
0.00624259
0.00680931
0.00737924
0.0079298
0.00844302
0.00890532
0.00930713
0.00964227
0.00990746
0.0101018
0.0102262
0.0102832
0.0102766
0.010211
0.0100917
0.00992471
0.00971607
0.00947216
0.00919921
0.00890379
0.00859091
0.00826842
0.00794017
0.0076044
0.00730175
0.0105086
0.0118082
0.012376
0.0114539
0.00886382
0.00635958
0.00442902
0.0032349
0.0036418
0.00519336
0.0068697
0.00767744
0.00819752
0.00897406
0.00949355
0.00962271
0.00938995
0.00894881
0.00851219
0.00820347
0.00804275
0.00801175
0.00809302
0.00827136
0.00852724
0.00883722
0.00917807
0.00952919
0.0098729
0.0101944
0.0104816
0.0107253
0.0109189
0.0110582
0.0111409
0.0111667
0.0111369
0.0110539
0.0109213
0.0107436
0.0105258
0.0102734
0.00999199
0.00968734
0.00936513
0.00903016
0.00869052
0.00834415
0.00800309
0.00768326
0.0129557
0.01256
0.0113199
0.00928435
0.00682121
0.00452225
0.00230252
0.000513512
-0.000362702
0.000406296
0.00312722
0.00676818
0.0097425
0.0117367
0.0124473
0.0123789
0.0119437
0.0114369
0.0110347
0.0107758
0.0106277
0.0105609
0.0105662
0.0106386
0.0107668
0.0109346
0.0111252
0.011324
0.0115179
0.0116952
0.0118462
0.0119632
0.0120402
0.0120729
0.0120591
0.011998
0.0118903
0.011738
0.0115441
0.0113127
0.0110481
0.0107553
0.0104396
0.010106
0.00975962
0.00940531
0.00904985
0.00868823
0.00834388
0.00800599
0.0112654
0.00941057
0.00710454
0.00427606
0.00155613
-0.000856411
-0.00243606
-0.00249925
-0.000125812
0.00455916
0.00935056
0.0124693
0.014013
0.0147647
0.0146388
0.014092
0.0135619
0.0131764
0.0129113
0.0127235
0.0125882
0.0125001
0.0124617
0.0124707
0.012518
0.0125915
0.0126798
0.0127723
0.0128591
0.0129313
0.0129809
0.0130014
0.0129874
0.0129354
0.012843
0.0127098
0.0125362
0.0123243
0.012077
0.0117981
0.0114918
0.0111628
0.0108161
0.0104564
0.0100884
0.00971687
0.00934654
0.00897294
0.00862607
0.00827054
0.00736533
0.0032309
-4.7517e-05
-0.00237496
-0.0023348
0.000476616
0.0045957
0.00914942
0.0130786
0.0150904
0.0161111
0.0167321
0.0167839
0.0164003
0.0158842
0.0154451
0.0151259
0.0148688
0.014636
0.0144313
0.0142652
0.0141412
0.014057
0.0140073
0.0139844
0.0139797
0.013985
0.0139922
0.0139934
0.013981
0.0139483
0.0138895
0.0137999
0.0136762
0.0135165
0.0133204
0.0130888
0.0128238
0.0125283
0.0122063
0.0118619
0.0114999
0.0111248
0.0107412
0.0103535
0.00996619
0.00958213
0.0092004
0.00885113
0.00848012
0.000178189
-0.00462623
-0.00521767
-0.00236355
0.00340249
0.00998717
0.0150714
0.0177995
0.018459
0.018323
0.0182079
0.0180536
0.0177792
0.0174736
0.0172139
0.0169647
0.0166964
0.0164179
0.0161552
0.0159258
0.0157324
0.0155719
0.0154405
0.0153342
0.0152477
0.0151752
0.0151101
0.0150459
0.0149758
0.0148929
0.0147912
0.0146652
0.0145106
0.0143244
0.0141052
0.0138528
0.0135686
0.0132548
0.0129149
0.0125529
0.0121732
0.0117804
0.0113789
0.0109732
0.0105673
0.010165
0.00976852
0.00938136