/*--------------------------------*- C++ -*----------------------------------*\
| =========                 |                                                 |
| \\      /  F ield         | OpenFOAM: The Open Source CFD Toolbox           |
|  \\    /   O peration     | Version:  4.1                                   |
|   \\  /    A nd           | Web:      www.OpenFOAM.org                      |
|    \\/     M anipulation  |                                                 |
\*---------------------------------------------------------------------------*/
FoamFile
{
    version     2.0;
    format      ascii;
    class       surfaceScalarField;
    location    "300";
    object      phi;
}
// * * * * * * * * * * * * * * * * * * * * * * * * * * * * * * * * * * * * * //

dimensions      [0 3 -1 0 0 0 0];

internalField   nonuniform List<scalar> 
23970
(
0.0233877
-0.00370249
-0.0196852
0.0459512
0.0122507
-0.0348143
0.060248
0.0265275
-0.0408243
0.0682542
0.0366257
-0.0446318
0.0726234
0.0435503
-0.0479195
0.0749331
0.04821
-0.0505196
0.0764575
0.0515052
-0.0530296
0.0775181
0.0545159
-0.0555765
0.0784616
0.0572489
-0.0581923
0.0793926
0.0599629
-0.0608939
0.0803193
0.062719
-0.0636457
0.0812559
0.0654492
-0.0663857
0.0822007
0.068138
-0.0690828
0.0831745
0.0707367
-0.0717105
0.0842122
0.0732038
-0.0742415
0.085354
0.0755177
-0.0766594
0.0866417
0.0776626
-0.0789504
0.0881154
0.0796289
-0.0811026
0.089816
0.0814086
-0.0831092
0.0917901
0.0829953
-0.0849693
0.0940927
0.0843877
-0.0866903
0.0967891
0.0855927
-0.0882892
0.0999568
0.0866295
-0.0897971
0.103686
0.0875347
-0.0912635
0.108079
0.0883669
-0.0927601
0.113252
0.0892141
-0.0943873
0.119334
0.0901988
-0.0962804
0.126455
0.0914841
-0.0986057
0.134736
0.0932714
-0.101552
0.144273
0.0957995
-0.105337
0.155129
0.0993327
-0.110189
0.167311
0.10414
-0.116322
0.180758
0.110467
-0.123914
0.195342
0.118495
-0.133078
0.210872
0.12831
-0.14384
0.227127
0.139868
-0.156122
0.243886
0.152988
-0.169748
0.260991
0.167378
-0.184482
0.278383
0.182689
-0.200082
0.296131
0.198604
-0.216352
0.314421
0.214923
-0.233213
0.333514
0.231632
-0.250725
0.353679
0.248895
-0.269061
0.375135
0.266998
-0.288453
0.398008
0.286237
-0.309111
0.42235
0.306902
-0.331244
0.448107
0.329047
-0.354804
0.475325
0.352953
-0.380171
0.503715
0.378015
-0.406405
0.405368
-0.435564
0.533911
0.00229602
-0.00599851
0.017312
-0.00276528
0.0366701
0.00716939
0.0538328
0.019463
0.065854
0.0315291
0.0727147
0.0413492
0.0763672
0.0478527
0.0785092
0.0523739
0.0798529
0.0559051
0.0805831
0.0592328
0.0812222
0.0620799
0.0819503
0.0647211
0.0827429
0.0673454
0.0835844
0.0698951
0.0844592
0.072329
0.0853881
0.0745887
0.0864222
0.0766285
0.0876167
0.0784345
0.0890225
0.0800028
0.0906875
0.0813302
0.092664
0.0824112
0.0950145
0.0832422
0.0978159
0.0838281
0.101162
0.0841885
0.105165
0.0843643
0.109954
0.0844253
0.115674
0.0844787
0.122479
0.0846785
0.130521
0.0852297
0.139932
0.086388
0.150811
0.0884537
0.163197
0.091754
0.177052
0.0966115
0.192247
0.103301
0.20856
0.111996
0.225704
0.122724
0.243364
0.135329
0.261264
0.149477
0.27925
0.164704
0.297338
0.180517
0.315725
0.196536
0.334739
0.212617
0.354748
0.228886
0.376069
0.245677
0.398902
0.263404
0.423335
0.282469
0.449304
0.303078
0.476811
0.325447
0.505539
0.349287
0.375039
0.535868
-0.00204912
-0.00394939
0.00147789
-0.00629229
0.013524
-0.00487671
0.032502
0.000484943
0.0534084
0.0106227
0.0712964
0.0234613
0.0832833
0.0358657
0.0900465
0.0456108
0.0937285
0.0522231
0.0957728
0.0571885
0.0968378
0.0610149
0.0970741
0.0644847
0.0970757
0.0673438
0.0971717
0.0697991
0.0973648
0.0721359
0.0976161
0.0743373
0.0978999
0.0763448
0.0982373
0.078097
0.0986865
0.0795536
0.0993161
0.0807007
0.100196
0.0815314
0.101399
0.0820391
0.103007
0.08222
0.105118
0.0820773
0.107855
0.0816273
0.111368
0.0809124
0.115834
0.0800133
0.12145
0.0790619
0.128428
0.078252
0.13697
0.0778457
0.14725
0.078174
0.15938
0.0796245
0.173377
0.0826143
0.189135
0.0875422
0.206407
0.0947243
0.224811
0.104319
0.243877
0.116263
0.263126
0.130228
0.282187
0.145643
0.300915
0.161789
0.319464
0.177987
0.338248
0.193833
0.357807
0.209327
0.378646
0.224839
0.401111
0.240939
0.425355
0.258225
0.451336
0.277097
0.478955
0.297828
0.50792
0.320321
0.344766
0.538194
-0.00362379
-0.000325599
-0.00629201
-0.00362407
-0.00499065
-0.00617807
0.00363075
-0.00813646
0.0203378
-0.00608433
0.0426942
0.00110484
0.0661368
0.0124232
0.0857398
0.0260078
0.0989897
0.0389732
0.106394
0.0497837
0.110319
0.05709
0.112341
0.0624632
0.11284
0.0668443
0.11234
0.0702994
0.111481
0.0729954
0.110669
0.0751487
0.109972
0.0770422
0.109366
0.078703
0.108822
0.080098
0.108352
0.08117
0.108016
0.0818672
0.107902
0.0821536
0.10811
0.0820116
0.108755
0.0814328
0.109968
0.0804136
0.111916
0.0789653
0.114799
0.0771296
0.118864
0.0749968
0.124388
0.0727278
0.131665
0.0705692
0.140975
0.0688636
0.152547
0.0680525
0.166501
0.0686604
0.182796
0.0712474
0.201191
0.0763292
0.221234
0.0842768
0.242284
0.0952118
0.2636
0.108912
0.284485
0.124759
0.304494
0.14178
0.323609
0.158872
0.342267
0.175175
0.361215
0.190379
0.381279
0.204775
0.403106
0.219112
0.427014
0.234317
0.453012
0.251098
0.480915
0.269925
0.510332
0.290904
0.31418
0.540919
-0.00434647
0.00402087
-0.00955992
0.00158937
-0.0131147
-0.00262331
-0.0140385
-0.00721264
-0.00972688
-0.010396
0.00255709
-0.0111791
0.0227966
-0.00781636
0.0487934
1.09604e-05
0.0754067
0.01236
0.0973278
0.0278626
0.112174
0.0422433
0.120385
0.0542528
0.124536
0.0626932
0.126203
0.0686324
0.125886
0.073312
0.124321
0.0767138
0.122292
0.0790712
0.12033
0.0806653
0.118557
0.081871
0.116943
0.0827836
0.115442
0.0833682
0.114067
0.0835288
0.112889
0.0831899
0.112022
0.0822995
0.111617
0.0808188
0.111856
0.0787263
0.112964
0.0760215
0.11522
0.0727409
0.118962
0.0689859
0.124577
0.064954
0.132471
0.0609699
0.143023
0.0574998
0.156536
0.0551475
0.173144
0.0546401
0.192713
0.0567604
0.214775
0.0622146
0.238512
0.0714741
0.262821
0.0846041
0.286494
0.101085
0.308573
0.119701
0.328729
0.138716
0.3474
0.156504
0.365588
0.172192
0.384514
0.185849
0.405279
0.198347
0.428482
0.211115
0.454278
0.225302
0.482525
0.241678
0.512643
0.260786
0.282859
0.543963
0.0038075
0.000213377
0.00485177
0.0005451
0.00484647
-0.00261801
0.00279108
-0.00515726
-0.000861301
-0.00674357
-0.00349791
-0.00854253
-0.00114626
-0.010168
0.00959988
-0.0107352
0.028586
-0.00662617
0.0544237
0.0020249
0.0809416
0.0157254
0.102375
0.0328194
0.117354
0.0477148
0.125848
0.0601384
0.129893
0.0692669
0.131016
0.0755907
0.129674
0.0804128
0.126998
0.0833409
0.123974
0.0848952
0.121083
0.085675
0.118442
0.0860094
0.116016
0.0859543
0.113751
0.0854552
0.111652
0.0843982
0.109813
0.0826583
0.108402
0.0801371
0.107658
0.0767654
0.10789
0.0725084
0.109485
0.067391
0.112911
0.0615284
0.118734
0.0551466
0.127587
0.0486468
0.140029
0.0427057
0.156402
0.0382664
0.176778
0.0363846
0.200887
0.0381061
0.227987
0.0443739
0.256737
0.0558538
0.285215
0.0726074
0.311341
0.0935743
0.333767
0.11629
0.352652
0.137619
0.369518
0.155326
0.386483
0.168883
0.405564
0.179267
0.427923
0.188756
0.453621
0.199605
0.482663
0.212635
0.514226
0.229223
0.249816
0.54727
0.00744787
-0.00723449
0.0142159
-0.00622295
0.019974
-0.00837607
0.0243006
-0.00948387
0.0273876
-0.00983061
0.0287391
-0.00989404
0.0281488
-0.00957766
0.0259454
-0.00853181
0.0257408
-0.00642153
0.0315138
-0.00374814
0.0455257
0.00171352
0.0669813
0.0113638
0.0897134
0.0249827
0.109006
0.040846
0.122809
0.055464
0.130771
0.0676281
0.134222
0.0769626
0.133907
0.0836557
0.131244
0.0875577
0.127312
0.0896071
0.123149
0.090173
0.1192
0.0899024
0.115545
0.0891102
0.112112
0.0878321
0.108838
0.085932
0.10576
0.0832149
0.103047
0.0794785
0.100994
0.0745611
0.100013
0.0683729
0.100668
0.0608726
0.103634
0.0521808
0.109524
0.0427568
0.119046
0.0331841
0.133143
0.0241689
0.152627
0.0169005
0.177672
0.0130618
0.20775
0.0142958
0.241591
0.0220125
0.276987
0.0372109
0.310903
0.0596589
0.339856
0.0873374
0.362053
0.115422
0.378347
0.139032
0.391927
0.155303
0.406895
0.164299
0.426421
0.16923
0.45143
0.174595
0.481263
0.182802
0.514879
0.195607
0.214027
0.550668
0.00552629
-0.0127608
0.0100106
-0.0107073
0.0152548
-0.0136203
0.0195375
-0.0137666
0.0237711
-0.0140641
0.0281853
-0.0143083
0.0325979
-0.0139902
0.0369366
-0.0128705
0.0410279
-0.0105129
0.0440028
-0.00672299
0.0479774
-0.0022611
0.0556533
0.00368793
0.0691195
0.0115165
0.0872758
0.0226897
0.106231
0.0365088
0.122381
0.0514781
0.133996
0.0653471
0.140085
0.0775668
0.14137
0.0862728
0.138644
0.092333
0.133915
0.0949026
0.128287
0.0955304
0.122589
0.0948075
0.117172
0.0932495
0.112013
0.0910912
0.106972
0.0882553
0.102023
0.0844283
0.0973303
0.0792535
0.0932858
0.0724174
0.0904479
0.0637105
0.0892685
0.0533602
0.090742
0.0412833
0.0973286
0.0265975
0.11138
0.0101173
0.133206
-0.0049254
0.16135
-0.0150819
0.194413
-0.0187668
0.231341
-0.0149164
0.270317
-0.00176478
0.309554
0.0204219
0.34463
0.0522616
0.372344
0.0877078
0.390988
0.120388
0.402532
0.143759
0.412632
0.154198
0.426696
0.155166
0.448219
0.153073
0.47778
0.15324
0.513801
0.159587
0.174081
0.553746
0.00152119
-0.014282
0.0034269
-0.012613
0.00537213
-0.0155655
0.00843335
-0.0168279
0.0124296
-0.0180604
0.0168961
-0.0187748
0.0219367
-0.0190308
0.0277105
-0.0186444
0.0344659
-0.0172683
0.0423859
-0.014643
0.0503919
-0.010267
0.0582858
-0.00420605
0.0664057
0.00339665
0.0766122
0.0124832
0.0898412
0.0232798
0.105089
0.0362306
0.119892
0.0505442
0.132163
0.0652956
0.139812
0.0786241
0.142448
0.0896967
0.140088
0.0972625
0.134906
0.100712
0.128081
0.101633
0.120869
0.100461
0.113854
0.0981059
0.107015
0.095095
0.100108
0.0913352
0.0930261
0.0863352
0.0859929
0.0794505
0.0792775
0.070426
0.073516
0.0591216
0.0721011
0.0426982
0.0797506
0.018948
0.0976899
-0.00782196
0.123209
-0.0304447
0.15427
-0.0461431
0.190477
-0.0549732
0.231903
-0.0563427
0.277667
-0.0475283
0.322495
-0.0244065
0.360046
0.014711
0.38828
0.0594732
0.404936
0.103732
0.412109
0.136586
0.416439
0.149868
0.424277
0.147328
0.441031
0.13632
0.46953
0.124741
0.508998
0.120118
0.127357
0.555722
-0.00353839
-0.0107436
-0.00401336
-0.012138
-0.00419488
-0.015384
-0.00292638
-0.0180964
-0.00049113
-0.0204956
0.00309965
-0.0223656
0.00772445
-0.0236556
0.0134686
-0.0243885
0.0204837
-0.0242834
0.0288426
-0.0230019
0.0388725
-0.0202969
0.0502551
-0.0155887
0.0623097
-0.00865795
0.0744654
0.000327521
0.0861451
0.0116001
0.0981256
0.02425
0.110596
0.0380736
0.123037
0.0528545
0.133623
0.0680389
0.141172
0.0821469
0.143777
0.0946578
0.141429
0.10306
0.13531
0.107752
0.127054
0.108718
0.118132
0.107028
0.109241
0.103985
0.100272
0.100305
0.0908412
0.0957656
0.0807372
0.0895546
0.0697811
0.0813821
0.0598847
0.069018
0.0572738
0.0453091
0.0655378
0.010684
0.0834764
-0.0257606
0.108043
-0.055011
0.13824
-0.07634
0.175095
-0.091829
0.220584
-0.101831
0.274587
-0.101532
0.333572
-0.0833908
0.385368
-0.0370853
0.417659
0.0271821
0.429447
0.0919438
0.426444
0.139589
0.419193
0.157119
0.416713
0.149808
0.426372
0.126661
0.452659
0.0984542
0.496527
0.0762498
0.0690836
0.554801
-0.00533054
-0.00541304
-0.00831389
-0.00915466
-0.0108649
-0.012833
-0.0121424
-0.0168188
-0.0122542
-0.0203839
-0.0108391
-0.0237807
-0.00797103
-0.0265237
-0.00367397
-0.0286856
0.00212204
-0.0300794
0.00980746
-0.0306873
0.0195247
-0.0300142
0.0313402
-0.0274041
0.0452749
-0.0225927
0.060622
-0.0150195
0.076893
-0.00467099
0.0923258
0.00881725
0.106244
0.0241554
0.118626
0.0404728
0.129479
0.0571856
0.138184
0.0734422
0.144234
0.0886078
0.145662
0.101632
0.142261
0.111153
0.134817
0.116161
0.124998
0.116848
0.114307
0.114676
0.103291
0.111321
0.091642
0.107415
0.0786029
0.102594
0.0635969
0.0963881
0.0499982
0.0826167
0.0446547
0.0506527
0.0497448
0.00559392
0.0635302
-0.0395461
0.0847637
-0.0762445
0.112101
-0.103678
0.146108
-0.125836
0.189835
-0.145557
0.244172
-0.15587
0.306876
-0.146095
0.369111
-0.0993203
0.412943
-0.0166504
0.426395
0.0784927
0.420901
0.145083
0.405039
0.172981
0.392439
0.162408
0.394442
0.124658
0.419087
0.0738094
0.4755
0.0198366
-0.0114419
0.556026
-0.00600135
0.000588308
-0.0104607
-0.00469535
-0.0144625
-0.00883114
-0.0174072
-0.0138741
-0.0193241
-0.018467
-0.0199696
-0.0231352
-0.019231
-0.0272623
-0.0170411
-0.0308754
-0.0133786
-0.0337419
-0.0080278
-0.0360381
-0.000532074
-0.0375099
0.00950289
-0.0374391
0.0221783
-0.0352682
0.037483
-0.0303242
0.054794
-0.021982
0.0735325
-0.00992125
0.0917793
0.00590859
0.107579
0.0246727
0.12039
0.0443751
0.130341
0.0634912
0.137559
0.0813899
0.141415
0.0977759
0.140806
0.111762
0.135543
0.121424
0.126666
0.125724
0.115646
0.125696
0.103665
0.123301
0.0908533
0.120227
0.0760739
0.117373
0.0585357
0.113926
0.0421444
0.0990079
0.0325944
0.0602027
0.0319413
0.00624703
0.0410418
-0.0486466
0.0590518
-0.0942545
0.0827821
-0.127408
0.110716
-0.15377
0.145387
-0.180228
0.188909
-0.199392
0.240148
-0.197333
0.293274
-0.152446
0.33523
-0.0586068
0.356122
0.0576013
0.353222
0.147983
0.338123
0.18808
0.325359
0.175171
0.329394
0.120623
0.357064
0.0461398
0.40797
-0.0310696
-0.0735937
0.470121
-0.0062421
0.00683041
-0.0111097
0.000172277
-0.0175358
-0.00240507
-0.023694
-0.0077158
-0.0288029
-0.0133581
-0.0322468
-0.0196914
-0.0338578
-0.0256512
-0.0337705
-0.0309628
-0.0319854
-0.035527
-0.028597
-0.0394265
-0.0234353
-0.0426716
-0.0158975
-0.0449768
-0.0053667
-0.045799
0.00849919
-0.0441901
0.0257252
-0.039208
0.0458675
-0.0300636
0.067983
-0.0162069
0.0901427
0.00251303
0.108971
0.0255472
0.123934
0.0485276
0.135006
0.0703177
0.142299
0.0904835
0.145125
0.108936
0.142133
0.124416
0.13483
0.133028
0.124071
0.136454
0.111267
0.136105
0.0972337
0.13426
0.0809495
0.133657
0.061339
0.133537
0.041092
0.119255
0.024233
0.0770617
0.0154827
0.0149973
0.0188691
-0.052033
0.0334931
-0.108878
0.0535064
-0.147421
0.0741276
-0.174391
0.0947823
-0.200883
0.119713
-0.224323
0.1488
-0.22642
0.176564
-0.180211
0.199851
-0.0818934
0.214323
0.0431289
0.215961
0.146345
0.213445
0.190597
0.213903
0.174713
0.225041
0.109485
0.241214
0.0299668
0.25287
-0.0427257
-0.0853576
0.264634
0.000705752
0.00612465
-0.00462765
0.00550568
-0.0122683
0.0052356
-0.0234605
0.00347637
-0.0334384
-0.00338016
-0.0418596
-0.0112702
-0.0476232
-0.0198876
-0.0507837
-0.0278023
-0.0519912
-0.0343195
-0.0516077
-0.03981
-0.0495867
-0.0446926
-0.0456585
-0.048905
-0.0391462
-0.0523113
-0.0292247
-0.0541116
-0.0152514
-0.0531813
0.00272455
-0.0480395
0.0249229
-0.0384052
0.0505016
-0.0230657
0.0757961
0.000252712
0.0976671
0.0266567
0.115715
0.0522693
0.12958
0.0766185
0.139109
0.0994079
0.142561
0.120963
0.139485
0.136104
0.132293
0.143647
0.121613
0.146785
0.10883
0.147043
0.0933989
0.149088
0.07373
0.153206
0.050015
0.14297
0.0250042
0.102073
0.00735722
0.0326443
0.00302783
-0.0477036
0.0129708
-0.118821
0.0295429
-0.163993
0.0447067
-0.189555
0.0533706
-0.209546
0.0575245
-0.228477
0.0601157
-0.229011
0.0615872
-0.181682
0.0611362
-0.0814425
0.0651677
0.0390974
0.0724352
0.139077
0.084634
0.178398
0.0984362
0.160911
0.103708
0.104213
0.0976874
0.0359872
0.0847
-0.0297383
-0.0742415
0.0735838
0.00338808
0.00273657
0.00480247
0.00409129
0.00472736
0.00531071
0.000452897
0.00775084
-0.00782434
0.00489708
-0.0164733
-0.00262128
-0.0231661
-0.0131948
-0.027325
-0.0236434
-0.0294638
-0.0321807
-0.0302836
-0.0389902
-0.0301535
-0.0448227
-0.0291666
-0.0498919
-0.0273689
-0.054109
-0.0240354
-0.057445
-0.018787
-0.0584297
-0.0114943
-0.0553322
-0.00209894
-0.0478006
0.0110392
-0.0362039
0.028287
-0.016995
0.0448255
0.0101182
0.0590811
0.0380138
0.0708464
0.0648531
0.0799035
0.0903508
0.0861486
0.114718
0.0882282
0.134025
0.0874044
0.14447
0.0836298
0.15056
0.0777931
0.15288
0.0678649
0.159017
0.0548697
0.166201
0.0395592
0.15828
0.0237953
0.117836
0.0146747
0.0417649
0.0161591
-0.049188
0.0288174
-0.13148
0.0451459
-0.180322
0.0579246
-0.202334
0.0603944
-0.212016
0.0490713
-0.217154
0.0274045
-0.207344
0.000163826
-0.154442
-0.0226329
-0.0586458
-0.0286995
0.045164
-0.0147337
0.125111
0.00346192
0.160203
0.0124965
0.151877
0.0050207
0.111689
-0.00610303
0.0471109
-0.0121589
-0.0236824
-0.0733755
-0.0130249
-0.00229716
0.00503373
-0.00350974
0.00530387
-0.0040632
0.00586417
-0.00169383
0.00538147
0.00223476
0.000968494
0.00708763
-0.00747416
0.0125008
-0.0186079
0.0172742
-0.0284168
0.0210007
-0.0359072
0.0236759
-0.0416654
0.0253623
-0.046509
0.0262818
-0.0508114
0.0263297
-0.054157
0.0252578
-0.0563731
0.0225803
-0.0557521
0.0185629
-0.0513149
0.0136492
-0.0428868
0.00715748
-0.0297122
0.00139672
-0.0112343
-0.00223685
0.0137517
-0.00418341
0.0399603
-0.00510891
0.0657786
-0.00540583
0.0906477
-0.00401194
0.113324
-8.76186e-05
0.1301
0.00451556
0.139867
0.00896637
0.146109
0.010944
0.150902
0.00917416
0.160787
0.00776338
0.167612
0.0110927
0.154951
0.0230799
0.105849
0.0424236
0.0224211
0.0653887
-0.072153
0.0866247
-0.152716
0.102114
-0.195811
0.108737
-0.208957
0.102915
-0.206194
0.0827616
-0.197
0.0517762
-0.176359
0.0182127
-0.120878
-0.00757055
-0.0328625
-0.0206597
0.0582531
-0.0221786
0.12663
-0.0226512
0.160675
-0.0338381
0.163063
-0.051841
0.129692
-0.0601621
0.055432
-0.0536214
-0.0302231
-0.0944133
-0.0325836
0.000189613
0.00484412
0.0019267
0.00356678
0.00501613
0.00277474
0.0116354
-0.00123776
0.0227709
-0.010167
0.0358971
-0.0206004
0.0461546
-0.0288655
0.0522681
-0.0345302
0.0552499
-0.038889
0.0563781
-0.0427936
0.0559683
-0.0460993
0.0539452
-0.0487883
0.0498249
-0.0500367
0.0427915
-0.0493397
0.0328044
-0.045765
0.0201393
-0.0386499
0.0051717
-0.0279192
-0.011653
-0.0128875
-0.0283516
0.00546436
-0.0410984
0.0264985
-0.0506011
0.0494631
-0.0570197
0.0721972
-0.0595544
0.0931824
-0.0567697
0.110539
-0.0493392
0.12267
-0.0398575
0.130386
-0.0295871
0.135838
-0.0216719
0.142987
-0.0136447
0.152759
-0.000175252
0.154142
0.0264401
0.128336
0.0634162
0.0688732
0.103611
-0.0177734
0.137078
-0.10562
0.157144
-0.172781
0.162877
-0.201544
0.157429
-0.203509
0.141166
-0.189931
0.114816
-0.170651
0.0821146
-0.143657
0.0507657
-0.0895292
0.0289522
-0.011049
0.0185032
0.0687021
0.0147599
0.130373
0.00813803
0.167297
-0.00574171
0.176943
-0.0209938
0.144944
-0.0240509
0.0584891
-0.00125242
-0.0530216
-0.133721
0.0380554
0.00104924
0.00379488
0.00227985
0.00233617
0.00732242
-0.00226783
0.0176864
-0.0116017
0.0288627
-0.0213433
0.0359476
-0.0276853
0.0387404
-0.0316583
0.0389254
-0.0347153
0.037761
-0.0377246
0.0354346
-0.0404672
0.0317434
-0.0424082
0.026323
-0.0433678
0.0189573
-0.042671
0.00958808
-0.0399705
-0.00135608
-0.0348208
-0.0134322
-0.0265737
-0.0261196
-0.0152318
-0.0384015
-0.000605507
-0.0488639
0.0159267
-0.057178
0.0348125
-0.0621347
0.0544198
-0.0630904
0.0731529
-0.0593215
0.0894135
-0.0506942
0.101912
-0.0387019
0.110677
-0.0250941
0.116778
-0.0112078
0.121952
0.00262438
0.129155
0.021171
0.134213
0.0501267
0.125187
0.0894717
0.0889908
0.134346
0.0239994
0.174852
-0.0582795
0.200512
-0.131281
0.207322
-0.179591
0.200229
-0.194452
0.184766
-0.188046
0.163636
-0.168801
0.138234
-0.145249
0.11224
-0.117663
0.0945852
-0.0718746
0.0889562
-0.00542
0.0922283
0.06543
0.0988532
0.123749
0.10844
0.15771
0.123345
0.162038
0.141789
0.1265
0.168008
0.0322699
0.200996
-0.0860088
-0.170292
0.237567
0.00100169
0.00279318
0.00552055
-0.00218269
0.0149268
-0.0116741
0.0236138
-0.0202887
0.0274865
-0.025216
0.0279015
-0.0281003
0.0268629
-0.0306196
0.0251739
-0.0330262
0.0225389
-0.0350896
0.0187001
-0.0366284
0.0135639
-0.037272
0.00687247
-0.0366764
-0.0013392
-0.0344593
-0.0109155
-0.0303942
-0.0214698
-0.0242665
-0.0323164
-0.0157272
-0.0429435
-0.00460473
-0.0519672
0.00841818
-0.0592633
0.0232228
-0.0635195
0.0390687
-0.0639244
0.0548247
-0.0599347
0.0691633
-0.0513994
0.0808781
-0.0389172
0.0894299
-0.0236467
0.095407
-0.00669013
0.0998213
0.0115722
0.10369
0.0332326
0.107494
0.0629106
0.104535
0.103221
0.0848763
0.150701
0.0415105
0.19803
-0.0233293
0.231499
-0.0917486
0.245564
-0.145346
0.240747
-0.174774
0.225922
-0.179626
0.205787
-0.167911
0.185105
-0.148119
0.165146
-0.12529
0.147636
-0.100153
0.14168
-0.065919
0.152871
-0.0166108
0.176952
0.0413492
0.209716
0.0909838
0.253503
0.113924
0.309844
0.105697
0.375294
0.061049
0.438291
-0.0307269
0.478455
-0.126172
-0.186157
0.49432
0.00480814
-0.00201496
0.0135572
-0.0109317
0.0208378
-0.0189547
0.0232644
-0.0227154
0.0229059
-0.0248574
0.0217538
-0.0269483
0.0198814
-0.0287472
0.0170709
-0.0302157
0.0129642
-0.0309829
0.00750092
-0.0311652
0.000669953
-0.030441
-0.0074538
-0.0285526
-0.0165726
-0.0253405
-0.0263067
-0.0206601
-0.0362861
-0.0142872
-0.0459302
-0.006083
-0.0540976
0.00356262
-0.0603838
0.0147044
-0.0640006
0.0268397
-0.0641515
0.0392196
-0.0602418
0.050915
-0.0520691
0.0609906
-0.0399453
0.0687543
-0.0245651
0.0740497
-0.00670033
0.0775422
0.0135762
0.0795447
0.0369938
0.0802722
0.066882
0.0776061
0.105975
0.0654418
0.153043
0.0378081
0.202795
-0.00824102
0.243633
-0.0641673
0.266284
-0.1144
0.270084
-0.149146
0.259101
-0.163791
0.240636
-0.161162
0.22103
-0.148305
0.204179
-0.131268
0.191182
-0.112293
0.182372
-0.0913429
0.183527
-0.0670739
0.203461
-0.0365449
0.245344
-0.000533265
0.305333
0.0309949
0.376697
0.0425598
0.455174
0.0272198
0.536182
-0.0199588
0.591498
-0.0860426
0.614197
-0.148872
-0.191088
0.619128
0.00832905
-0.010344
0.0127571
-0.0153598
0.0143841
-0.0205817
0.0136019
-0.0219332
0.012543
-0.0237985
0.0104782
-0.0248834
0.00742361
-0.0256926
0.00315034
-0.0259425
-0.00209892
-0.0257337
-0.00839208
-0.024872
-0.0155002
-0.0233329
-0.0231125
-0.0209403
-0.0309235
-0.0175295
-0.0386313
-0.0129522
-0.0457235
-0.00719502
-0.051527
-0.000279466
-0.0557472
0.00778285
-0.0577084
0.0166656
-0.056779
0.0259102
-0.0524613
0.0349019
-0.0445023
0.0429561
-0.033002
0.0494902
-0.0183913
0.0541436
-0.0011594
0.0568178
0.0188355
0.0575473
0.0419045
0.0564756
0.0696869
0.0524899
0.104403
0.0428897
0.145948
0.0238971
0.191547
-0.00779101
0.234052
-0.0507463
0.262747
-0.0928618
0.274622
-0.126275
0.271549
-0.146073
0.258239
-0.15048
0.241734
-0.144657
0.227258
-0.133828
0.216999
-0.121009
0.211584
-0.106878
0.211402
-0.0911608
0.218544
-0.0742162
0.239032
-0.0570325
0.279565
-0.0410661
0.340653
-0.0300935
0.41405
-0.0308377
0.490897
-0.0496269
0.556694
-0.0857558
0.596575
-0.125923
0.61163
-0.163927
-0.191613
0.612156
0.00589521
-0.0162392
0.00654323
-0.0160078
0.00681541
-0.0208539
0.00532532
-0.0204431
0.00326477
-0.021738
-0.000114172
-0.0215045
-0.00431854
-0.0214882
-0.00937598
-0.020885
-0.015087
-0.0200227
-0.0211868
-0.0187722
-0.0274321
-0.0170876
-0.0334971
-0.0148753
-0.0389961
-0.0120305
-0.0435667
-0.00838171
-0.0469896
-0.00377203
-0.0489577
0.00168859
-0.0490873
0.0079124
-0.046967
0.0145453
-0.0422105
0.0211537
-0.0345655
0.0272569
-0.0239026
0.0322932
-0.010503
0.0360906
0.00561339
0.0380273
0.0242877
0.0381436
0.0456202
0.0362148
0.070496
0.0315999
0.100068
0.0229183
0.135555
0.00740253
0.175729
-0.0162777
0.216687
-0.0487487
0.248612
-0.0826713
0.265986
-0.110236
0.269901
-0.130191
0.262736
-0.138908
0.250808
-0.138553
0.239465
-0.133314
0.231537
-0.125901
0.227833
-0.117305
0.228685
-0.10773
0.234892
-0.0973671
0.247615
-0.0869395
0.268515
-0.0779325
0.299963
-0.0725137
0.343151
-0.0732821
0.395248
-0.0829346
0.448362
-0.102741
0.492858
-0.130252
0.526701
-0.159766
0.549567
-0.186793
-0.209046
0.566999
0.00268416
-0.0189234
0.00245797
-0.0157817
0.00141278
-0.0198087
-0.00156547
-0.0174649
-0.00523598
-0.0180674
-0.00966886
-0.0170716
-0.0147749
-0.0163821
-0.0200901
-0.0155698
-0.0253101
-0.0148027
-0.0301596
-0.0139227
-0.0342755
-0.0129718
-0.0374425
-0.0117083
-0.0396041
-0.0098689
-0.0406859
-0.00729988
-0.0405137
-0.00394425
-0.0389221
9.7051e-05
-0.0356253
0.00461555
-0.0303764
0.00929647
-0.0229171
0.0136943
-0.0132791
0.0176189
-0.00132568
0.0203398
0.0131742
0.0215908
0.0298144
0.0213871
0.0487582
0.0191997
0.0708055
0.0141675
0.0974618
0.0049436
0.129042
-0.00866226
0.165078
-0.0286333
0.202474
-0.0536735
0.233317
-0.0795921
0.252095
-0.101449
0.259737
-0.117878
0.257622
-0.128075
0.25046
-0.131746
0.24289
-0.130982
0.237625
-0.128048
0.235641
-0.123918
0.237225
-0.118889
0.242794
-0.1133
0.253171
-0.107744
0.2694
-0.103168
0.292335
-0.100868
0.322205
-0.102384
0.358242
-0.109318
0.398115
-0.122808
0.438022
-0.142648
0.474532
-0.166762
0.506569
-0.191803
0.534439
-0.214663
-0.234808
0.560201
9.26737e-05
-0.019016
-0.00172284
-0.0139662
-0.00587486
-0.0156566
-0.0097659
-0.0135739
-0.0149038
-0.0129296
-0.019989
-0.0119864
-0.0248304
-0.0115407
-0.0290448
-0.0113554
-0.0323035
-0.011544
-0.034262
-0.0119642
-0.0349122
-0.0123216
-0.0344656
-0.0121549
-0.0330183
-0.0113162
-0.0306571
-0.00966114
-0.0273638
-0.00723756
-0.0230089
-0.00425783
-0.0173719
-0.00102146
-0.0104006
0.00232518
-0.00188968
0.00518343
0.00862092
0.00710826
0.021091
0.00786975
0.0358054
0.00687631
0.0536627
0.00352984
0.0751268
-0.00226443
0.100765
-0.0114705
0.130187
-0.0244786
0.162201
-0.040676
0.193516
-0.0599488
0.218863
-0.0790198
0.234874
-0.0956038
0.242598
-0.109173
0.243943
-0.119222
0.241216
-0.125349
0.237654
-0.128184
0.235483
-0.128811
0.235571
-0.128136
0.238238
-0.126584
0.243857
-0.124507
0.252999
-0.122442
0.266347
-0.121092
0.284519
-0.12134
0.30787
-0.124219
0.336252
-0.130766
0.368713
-0.14178
0.403382
-0.157477
0.437899
-0.177165
0.470318
-0.199181
0.499992
-0.221477
0.52772
-0.24239
-0.262224
0.555135
-0.00471262
-0.0143034
-0.00888023
-0.00979854
-0.0150806
-0.0094563
-0.0206372
-0.00801718
-0.0260752
-0.00749157
-0.0305335
-0.00752817
-0.0335391
-0.0085351
-0.0346645
-0.01023
-0.0338715
-0.012337
-0.0315498
-0.0142859
-0.0283076
-0.0155638
-0.0243999
-0.0160625
-0.0200525
-0.0156636
-0.0153178
-0.0143958
-0.0100611
-0.0124943
-0.00406581
-0.0102531
0.00304135
-0.00812861
0.0118646
-0.0064981
0.0227339
-0.00568588
0.0360107
-0.00616848
0.0519329
-0.00805243
0.0708396
-0.0120304
0.0925389
-0.0181694
0.116824
-0.0265495
0.142513
-0.0371591
0.167779
-0.0497453
0.191089
-0.0639858
0.209307
-0.078167
0.221102
-0.0908147
0.228071
-0.102573
0.231286
-0.112387
0.232003
-0.11994
0.231891
-0.125236
0.232311
-0.128604
0.234074
-0.130574
0.2376
-0.131662
0.243291
-0.132275
0.251639
-0.132856
0.263156
-0.133959
0.278292
-0.136228
0.29734
-0.140387
0.320303
-0.147182
0.346762
-0.157226
0.375805
-0.170822
0.40611
-0.187783
0.436288
-0.207343
0.465396
-0.228289
0.493381
-0.249461
0.52108
-0.27009
-0.290878
0.549733
-0.00807984
-0.00622359
-0.0141277
-0.00375073
-0.0204133
-0.00317062
-0.0252808
-0.0031497
-0.0283945
-0.00437793
-0.0290005
-0.00692212
-0.0268696
-0.010666
-0.0222996
-0.0147999
-0.0161009
-0.0185357
-0.00921691
-0.0211699
-0.00216175
-0.0226189
0.00470481
-0.0229291
0.0112946
-0.0222534
0.0178702
-0.0209714
0.0248923
-0.0195164
0.0328749
-0.0182357
0.0422477
-0.0175014
0.0532752
-0.0175255
0.0661699
-0.0185806
0.0809253
-0.0209239
0.0970375
-0.0241646
0.114589
-0.0295818
0.132861
-0.036442
0.151153
-0.0448412
0.168554
-0.0545604
0.184157
-0.0653477
0.196751
-0.0765804
0.205768
-0.0871831
0.212762
-0.0978096
0.21771
-0.107521
0.22117
-0.115847
0.223822
-0.122593
0.22639
-0.127804
0.229548
-0.131762
0.233853
-0.134878
0.239757
-0.137566
0.247687
-0.140206
0.258051
-0.143219
0.271196
-0.147104
0.287369
-0.152402
0.306661
-0.159679
0.328919
-0.16944
0.353687
-0.181993
0.380215
-0.197351
0.407608
-0.215176
0.435088
-0.234822
0.46229
-0.25549
0.489427
-0.276599
0.517164
-0.297826
-0.319984
0.54627
-0.00639104
0.000167452
-0.0112974
0.00115562
-0.0145398
7.17519e-05
-0.0159649
-0.00172454
-0.0145855
-0.00575738
-0.00968739
-0.0118202
-0.00206316
-0.0182903
0.00689803
-0.0237611
0.015836
-0.0274736
0.0241863
-0.0295203
0.0317281
-0.0301607
0.0385796
-0.0297806
0.0451177
-0.0287915
0.0517503
-0.0276041
0.0588332
-0.0265993
0.0666421
-0.0260446
0.075307
-0.0261664
0.0849207
-0.0271392
0.0953682
-0.0290281
0.106485
-0.0320402
0.118365
-0.0360447
0.130781
-0.0419983
0.143283
-0.048944
0.155398
-0.0569559
0.166709
-0.0658712
0.176803
-0.0754417
0.185499
-0.0852766
0.193277
-0.0949612
0.199817
-0.10435
0.205262
-0.112965
0.209904
-0.120489
0.214192
-0.12688
0.218673
-0.132286
0.223887
-0.136976
0.23028
-0.141271
0.238217
-0.145503
0.248022
-0.150011
0.259985
-0.155182
0.274335
-0.161453
0.291199
-0.169266
0.310567
-0.179047
0.332233
-0.191106
0.355784
-0.205544
0.380667
-0.222234
0.406328
-0.240837
0.432384
-0.260877
0.458747
-0.281853
0.485696
-0.303548
0.513696
-0.325827
-0.349547
0.543259
-0.00302745
0.00319491
-0.00428408
0.00241224
-0.00447536
0.000263042
-0.000828086
-0.00537182
0.00647954
-0.013065
0.0159631
-0.0213038
0.0257524
-0.0280796
0.0345932
-0.0326019
0.042138
-0.0350184
0.0484202
-0.0358025
0.0537706
-0.0355111
0.0586341
-0.034644
0.063448
-0.0336055
0.0685531
-0.0327092
0.0741576
-0.0322037
0.0803986
-0.0322856
0.0873342
-0.033102
0.0949908
-0.0347958
0.103346
-0.0373833
0.11234
-0.0410341
0.12211
-0.0458146
0.131914
-0.0518021
0.141719
-0.0587491
0.15128
-0.0665171
0.160384
-0.0749746
0.168848
-0.083906
0.176583
-0.093012
0.183612
-0.10199
0.189867
-0.110605
0.1955
-0.118598
0.200832
-0.125822
0.20627
-0.132318
0.212228
-0.138244
0.219071
-0.143819
0.227102
-0.149303
0.236589
-0.15499
0.247774
-0.161196
0.260864
-0.168272
0.276008
-0.176597
0.293243
-0.186502
0.312528
-0.198332
0.333644
-0.212222
0.356259
-0.228159
0.380001
-0.245976
0.404557
-0.265393
0.429775
-0.286096
0.4557
-0.307778
0.482628
-0.330476
0.51082
-0.35402
-0.37944
0.540713
0.000913226
0.00228168
0.00378325
-0.00045779
0.00995034
-0.00590404
0.0191889
-0.0146104
0.0295659
-0.023442
0.038753
-0.0304909
0.0457956
-0.0351222
0.0509026
-0.0377088
0.0547101
-0.0388259
0.0578135
-0.038906
0.0607526
-0.0384502
0.0639162
-0.0378076
0.0675518
-0.037241
0.0718154
-0.0369728
0.0767922
-0.0371805
0.0825068
-0.0380003
0.0889398
-0.039535
0.0960095
-0.0418655
0.10369
-0.0450636
0.111854
-0.0491985
0.120323
-0.0542838
0.128819
-0.0602975
0.137219
-0.0671496
0.14541
-0.0747076
0.153269
-0.0828344
0.160702
-0.0913384
0.16767
-0.0999797
0.174205
-0.108525
0.180384
-0.116784
0.186392
-0.124605
0.192498
-0.131928
0.198998
-0.138818
0.20618
-0.145425
0.214298
-0.151937
0.223578
-0.158583
0.234235
-0.165648
0.246453
-0.173414
0.260372
-0.18219