/*--------------------------------*- C++ -*----------------------------------*\
| =========                 |                                                 |
| \\      /  F ield         | OpenFOAM: The Open Source CFD Toolbox           |
|  \\    /   O peration     | Version:  4.1                                   |
|   \\  /    A nd           | Web:      www.OpenFOAM.org                      |
|    \\/     M anipulation  |                                                 |
\*---------------------------------------------------------------------------*/
FoamFile
{
    version     2.0;
    format      ascii;
    class       volVectorField;
    location    "300";
    object      U;
}
// * * * * * * * * * * * * * * * * * * * * * * * * * * * * * * * * * * * * * //

dimensions      [0 1 -1 0 0 0 0];

internalField   nonuniform List<vector> 
12100
(
(0.179553 -0.029528 5.14713e-19)
(0.457332 0.0964253 -6.11836e-19)
(0.642114 0.131737 2.05733e-19)
(0.73546 0.124454 3.44414e-19)
(0.760077 0.124155 -3.14454e-19)
(0.759627 0.125609 2.61746e-19)
(0.751839 0.129622 -2.47103e-19)
(0.738581 0.135737 0)
(0.721931 0.141135 0)
(0.704081 0.145082 0)
(0.685691 0.148323 0)
(0.66673 0.15114 6.2435e-20)
(0.647228 0.153222 -9.50905e-20)
(0.627215 0.154145 8.96408e-20)
(0.60686 0.153639 0)
(0.586464 0.151585 -5.11354e-20)
(0.566333 0.147926 8.23052e-21)
(0.546733 0.142644 4.34244e-20)
(0.527896 0.135749 6.42809e-21)
(0.51004 0.127273 2.02101e-20)
(0.493384 0.117269 -8.92903e-21)
(0.478151 0.105815 2.2496e-20)
(0.464567 0.0930222 5.79718e-21)
(0.452864 0.0790386 0)
(0.44327 0.0640556 -7.16421e-21)
(0.436008 0.0483181 6.60705e-21)
(0.431269 0.0321417 3.0665e-20)
(0.429232 0.0159193 1.2041e-20)
(0.429981 0.000104021 0)
(0.433481 -0.0148002 0)
(0.43956 -0.0282767 -4.13294e-20)
(0.447881 -0.0398269 1.2229e-20)
(0.457939 -0.0490253 -3.0062e-20)
(0.469072 -0.0555859 3.57431e-21)
(0.480521 -0.0594091 9.33253e-21)
(0.491508 -0.0606224 -3.92777e-21)
(0.501341 -0.0595863 8.53071e-22)
(0.509522 -0.0568533 -8.43985e-22)
(0.515833 -0.0530836 -1.88226e-21)
(0.52035 -0.0489311 3.76512e-21)
(0.523405 -0.0449146 -1.57967e-20)
(0.525473 -0.0413277 -1.91616e-21)
(0.527027 -0.0382248 -3.18772e-20)
(0.528414 -0.0354809 3.06173e-20)
(0.529793 -0.0329122 0)
(0.531161 -0.0302679 -2.71507e-20)
(0.532394 -0.0275995 -2.5853e-20)
(0.533343 -0.0244472 6.87497e-22)
(0.533893 -0.0218495 3.03783e-22)
(0.533966 -0.0178955 -3.61594e-20)
(-0.138458 -0.146175 -6.90578e-21)
(0.0618541 -0.0348398 9.88317e-20)
(0.321083 0.0755608 -2.13173e-19)
(0.54056 0.130905 3.33441e-19)
(0.679381 0.153162 0)
(0.737871 0.164718 -2.85036e-19)
(0.747811 0.159937 2.62533e-19)
(0.745001 0.157099 0)
(0.732989 0.161428 0)
(0.715759 0.168968 1.69432e-19)
(0.696039 0.17504 -1.60393e-19)
(0.675433 0.178711 -6.36008e-20)
(0.65466 0.180668 0)
(0.633556 0.18124 9.01594e-20)
(0.612065 0.180376 -1.08703e-20)
(0.590327 0.177917 -1.39569e-19)
(0.568646 0.173739 0)
(0.547405 0.167783 6.63351e-21)
(0.526934 0.160054 -2.62333e-20)
(0.507489 0.150595 2.45251e-20)
(0.489282 0.139468 0)
(0.472524 0.126742 -1.45354e-20)
(0.457437 0.112513 3.3168e-21)
(0.444265 0.0969148 -1.28449e-21)
(0.433264 0.0801231 1.18797e-21)
(0.424696 0.0623686 -1.0082e-20)
(0.418813 0.0439522 -3.35799e-20)
(0.415844 0.0252609 -2.22058e-20)
(0.415947 0.0067697 0)
(0.419172 -0.0109614 1.06743e-20)
(0.425427 -0.0273129 3.72108e-20)
(0.434438 -0.0416498 3.6517e-20)
(0.445722 -0.0533815 5.59965e-21)
(0.458585 -0.0620381 -8.56932e-21)
(0.472164 -0.0673555 -5.20617e-21)
(0.485505 -0.0693484 3.15657e-21)
(0.497683 -0.0683513 -4.70674e-22)
(0.507941 -0.0649988 4.24301e-22)
(0.515842 -0.0601377 1.76233e-21)
(0.521354 -0.0546772 -3.63148e-21)
(0.524834 -0.0494041 1.8118e-20)
(0.5269 -0.0448204 -2.16251e-21)
(0.52823 -0.0410787 -1.03349e-21)
(0.529365 -0.038031 -2.90819e-20)
(0.530607 -0.0353791 0)
(0.532017 -0.0327629 -1.25948e-21)
(0.533453 -0.0300309 2.53407e-20)
(0.534723 -0.0268944 0)
(0.535589 -0.0237848 -4.42574e-20)
(0.535975 -0.0200307 3.58902e-20)
(-0.0261761 -0.0636317 -1.29031e-18)
(-0.0564337 -0.0877779 6.59223e-19)
(0.0262147 -0.0542155 3.27531e-19)
(0.193246 0.0198174 -4.96448e-19)
(0.396371 0.0951894 0)
(0.570148 0.152894 9.53453e-20)
(0.680314 0.186747 -1.3828e-19)
(0.724811 0.201073 3.06449e-19)
(0.733067 0.197468 -1.09541e-19)
(0.729967 0.195039 -1.00537e-19)
(0.715395 0.197758 0)
(0.693695 0.20313 0)
(0.669759 0.207843 -6.17925e-20)
(0.645548 0.210261 5.85571e-20)
(0.62186 0.210212 4.36242e-20)
(0.59847 0.207843 3.02332e-20)
(0.575163 0.203359 6.7446e-20)
(0.552065 0.196908 -4.47843e-20)
(0.52951 0.188556 0)
(0.507869 0.178334 1.17539e-20)
(0.487455 0.166284 -1.09974e-20)
(0.468523 0.152466 -8.98145e-21)
(0.451301 0.13695 -1.29248e-21)
(0.43602 0.119828 4.16263e-21)
(0.422935 0.101232 -6.64546e-21)
(0.412338 0.0813601 -5.61846e-21)
(0.404542 0.0604863 1.65357e-20)
(0.399858 0.038981 -2.23939e-20)
(0.398561 0.0173277 2.97886e-20)
(0.40084 -0.00386827 -6.66959e-21)
(0.406744 -0.023889 -1.60574e-20)
(0.416122 -0.04194 -5.99849e-20)
(0.428573 -0.0572141 -7.64265e-21)
(0.443416 -0.0689894 -2.77414e-20)
(0.459693 -0.0767466 1.88216e-20)
(0.476237 -0.0802842 1.15029e-20)
(0.491804 -0.0798056 -4.65162e-21)
(0.50525 -0.0759529 4.1869e-23)
(0.515746 -0.0697571 1.12369e-20)
(0.522971 -0.0624763 -1.68867e-20)
(0.527208 -0.0553219 9.30258e-22)
(0.529249 -0.0491596 1.80892e-20)
(0.530106 -0.0443462 5.15277e-20)
(0.530675 -0.0407632 1.06312e-21)
(0.531517 -0.0379929 -9.54873e-22)
(0.532818 -0.0354962 2.95591e-20)
(0.534432 -0.0328729 -4.25741e-22)
(0.536099 -0.0297972 0)
(0.53745 -0.0263936 4.4989e-20)
(0.538298 -0.0223558 0)
(-0.0160585 -0.0496794 1.7724e-19)
(-0.054096 -0.0751583 -1.39931e-19)
(-0.0597494 -0.0922875 1.27906e-19)
(-0.0337392 -0.0992722 -1.2211e-19)
(0.0716883 -0.0478069 0)
(0.236719 0.0307872 -1.4123e-19)
(0.416692 0.112992 5.06913e-20)
(0.565139 0.175761 -1.14927e-19)
(0.663474 0.210729 3.02928e-20)
(0.707308 0.231166 7.63882e-20)
(0.715675 0.234197 0)
(0.711895 0.23419 0)
(0.6951 0.234503 0)
(0.669281 0.236371 -7.05908e-20)
(0.640905 0.238025 -4.77483e-20)
(0.612794 0.237622 -1.21422e-20)
(0.58591 0.2344 -5.98385e-20)
(0.560136 0.228346 -7.37766e-20)
(0.535215 0.219829 0)
(0.511116 0.209144 0)
(0.488036 0.196407 0)
(0.46629 0.181678 0)
(0.446214 0.165045 -1.94546e-20)
(0.428109 0.146597 -5.47268e-21)
(0.412257 0.126413 2.49805e-21)
(0.398963 0.10461 1.11919e-20)
(0.38858 0.0813911 -1.32528e-21)
(0.381499 0.0570756 2.97215e-20)
(0.378126 0.0321256 -3.11093e-20)
(0.378819 0.00716416 -2.04058e-21)
(0.383819 -0.017022 3.68806e-21)
(0.393174 -0.0395042 -6.17683e-21)
(0.406638 -0.0592599 3.96847e-20)
(0.423593 -0.0752618 2.86308e-20)
(0.44302 -0.0866237 -2.0318e-20)
(0.463549 -0.0927777 -2.64977e-20)
(0.48358 -0.093637 4.04113e-21)
(0.501477 -0.0897057 1.74769e-22)
(0.515849 -0.0820973 -2.67059e-22)
(0.525865 -0.0724294 -1.25885e-21)
(0.531522 -0.0625305 0)
(0.533673 -0.0539398 -3.87527e-20)
(0.53372 -0.0474586 1.37374e-21)
(0.533128 -0.0430677 -1.80292e-20)
(0.532978 -0.0401731 3.46377e-20)
(0.533755 -0.037942 3.27913e-20)
(0.535363 -0.0356801 1.14614e-22)
(0.53742 -0.0328891 -1.10911e-22)
(0.539405 -0.0294506 -2.68521e-20)
(0.540887 -0.025086 4.90052e-20)
(-0.0111008 0.032278 -3.82414e-19)
(-0.0639494 -0.0323372 3.34049e-19)
(-0.0792392 -0.0904244 -1.43014e-19)
(-0.0942325 -0.13466 -1.15218e-19)
(-0.0904237 -0.148976 -1.10719e-21)
(-0.0276289 -0.120548 0)
(0.0816639 -0.0444154 0)
(0.234912 0.0484221 0)
(0.405293 0.134329 -4.34023e-20)
(0.54962 0.201866 1.03381e-21)
(0.645552 0.236621 -8.86883e-20)
(0.688529 0.258255 0)
(0.694559 0.274715 -2.06449e-20)
(0.689027 0.274897 1.06885e-19)
(0.669055 0.273149 4.22512e-20)
(0.639465 0.271514 -6.1436e-20)
(0.606886 0.268992 1.02507e-19)
(0.575069 0.263948 1.47778e-19)
(0.545419 0.255895 6.49715e-20)
(0.517793 0.245165 -9.49829e-21)
(0.491673 0.232082 -2.76262e-20)
(0.466868 0.216721 0)
(0.443558 0.199118 -1.09926e-20)
(0.422061 0.179383 0)
(0.402725 0.157627 0)
(0.385933 0.133933 0)
(0.372106 0.108396 -1.31054e-20)
(0.36171 0.081212 -5.12101e-22)
(0.355268 0.0527453 3.85543e-20)
(0.353324 0.0235581 0)
(0.356361 -0.0055574 0)
(0.364682 -0.0335355 2.72275e-20)
(0.37833 -0.0590799 1.71484e-21)
(0.396966 -0.0807976 -1.16033e-21)
(0.419708 -0.0973647 1.04055e-21)
(0.445062 -0.107714 1.57662e-20)
(0.471006 -0.111247 0)
(0.495209 -0.108069 -1.31322e-21)
(0.515369 -0.0991962 -4.99013e-21)
(0.529744 -0.0865695 -2.52195e-21)
(0.537773 -0.0727292 0)
(0.540342 -0.0601716 2.08989e-20)
(0.539379 -0.0506109 -4.26857e-20)
(0.537051 -0.0445729 -1.84145e-21)
(0.535201 -0.0414152 -3.51204e-20)
(0.534846 -0.0397781 -3.31194e-20)
(0.53603 -0.0383542 0)
(0.538353 -0.0362823 -3.14049e-20)
(0.541147 -0.0331153 2.70638e-20)
(0.543619 -0.0284798 -7.64834e-20)
(0.00960719 0.136169 0)
(-0.0122463 0.131667 2.20965e-19)
(0.0541611 -0.0360301 1.85189e-19)
(0.0713014 -0.15956 -5.14465e-19)
(0.0604906 -0.220474 1.39572e-19)
(0.0271 -0.24714 0)
(0.0304574 -0.246088 0)
(0.0549737 -0.205895 0)
(0.130348 -0.0915115 1.31004e-19)
(0.260397 0.0416808 9.67064e-20)
(0.414198 0.148627 1.56996e-19)
(0.54514 0.226861 1.31407e-19)
(0.629336 0.267783 -1.14825e-19)
(0.668557 0.293435 0)
(0.670513 0.313272 0)
(0.662007 0.313412 1.39877e-19)
(0.636759 0.310048 -2.24245e-19)
(0.601738 0.304938 -1.41586e-19)
(0.564843 0.297154 -1.00476e-19)
(0.530302 0.286392 3.22284e-20)
(0.498824 0.272959 1.87135e-20)
(0.469848 0.257156 1.78583e-20)
(0.442901 0.238998 -8.43944e-21)
(0.417819 0.218398 -3.51898e-21)
(0.394692 0.195355 -2.92589e-21)
(0.373847 0.16994 -1.25251e-21)
(0.35577 0.142211 1.35737e-20)
(0.341053 0.11224 -3.12069e-21)
(0.330378 0.0802111 -1.8786e-21)
(0.324463 0.0465589 -4.0555e-20)
(0.324057 0.0120485 5.11219e-21)
(0.329981 -0.0223495 -4.63695e-21)
(0.342829 -0.0553927 0)
(0.362542 -0.085284 0)
(0.388342 -0.109833 4.11548e-21)
(0.418834 -0.126995 2.33877e-20)
(0.451969 -0.135307 0)
(0.484984 -0.13415 1.25115e-21)
(0.514457 -0.124077 -1.31315e-20)
(0.536739 -0.107275 4.51515e-20)
(0.54938 -0.087487 -2.9922e-20)
(0.552611 -0.0689092 -2.91735e-20)
(0.54932 -0.0544963 -5.13526e-21)
(0.543398 -0.0454476 4.49584e-20)
(0.538057 -0.0413461 -2.10269e-20)
(0.535655 -0.0403041 -3.70636e-20)
(0.536037 -0.0402944 -3.50848e-20)
(0.538518 -0.039744 -1.86857e-21)
(0.542351 -0.0374958 0)
(0.546341 -0.0329126 -3.08122e-21)
(0.083438 -0.141653 -1.01407e-18)
(0.169052 -0.161288 1.63534e-18)
(0.230168 -0.21449 -6.66788e-19)
(0.282247 -0.262317 1.42795e-19)
(0.319097 -0.290329 0)
(0.337112 -0.308264 0)
(0.337741 -0.325797 -5.77507e-19)
(0.319441 -0.328782 1.65929e-19)
(0.276196 -0.294145 -3.551e-20)
(0.241953 -0.230651 1.24947e-20)
(0.263512 -0.0913543 -9.21637e-20)
(0.346369 0.062946 -1.80636e-19)
(0.451427 0.178081 1.45569e-19)
(0.550188 0.259558 -1.28102e-19)
(0.615156 0.307875 0)
(0.644542 0.335404 -8.16681e-20)
(0.642563 0.355223 1.38607e-19)
(0.626959 0.352845 1.15481e-19)
(0.593825 0.345565 0)
(0.554228 0.334582 9.18239e-20)
(0.514871 0.320107 -7.0315e-20)
(0.478582 0.302932 5.21311e-20)
(0.445772 0.283652 8.8236e-20)
(0.415905 0.262252 0)
(0.388437 0.23842 2.91815e-20)
(0.363189 0.211901 2.1692e-21)
(0.340362 0.182552 4.44504e-21)
(0.320523 0.15028 -4.11214e-21)
(0.304469 0.115125 -5.31992e-20)
(0.293143 0.0773126 4.23493e-20)
(0.287802 0.0370535 0)
(0.289329 -0.00472191 -1.04761e-20)
(0.297925 -0.0456296 4.76674e-20)
(0.314425 -0.0831466 -7.20537e-21)
(0.3399 -0.115652 -1.78991e-20)
(0.373862 -0.141433 -2.83043e-20)
(0.414085 -0.158169 1.215e-21)
(0.457383 -0.16349 -7.31315e-22)
(0.499761 -0.155772 1.56694e-20)
(0.536255 -0.135993 -4.46417e-20)
(0.561321 -0.108335 7.25238e-20)
(0.571409 -0.0799261 3.23603e-20)
(0.568047 -0.0571787 2.55159e-20)
(0.556859 -0.0433108 -2.20441e-20)
(0.544603 -0.0380715 1.92092e-20)
(0.536054 -0.038488 3.84832e-20)
(0.534725 -0.041097 3.52784e-20)
(0.536924 -0.0431207 3.35933e-20)
(0.542197 -0.04273 0)
(0.548627 -0.0388578 3.0512e-20)
(0.171044 -0.392646 1.02535e-18)
(0.336573 -0.426988 -1.00116e-18)
(0.340843 -0.452695 -1.82171e-19)
(0.362154 -0.448421 6.18539e-19)
(0.387263 -0.440532 -4.05419e-19)
(0.40827 -0.431666 0)
(0.41978 -0.410714 3.20892e-19)
(0.422391 -0.373211 -3.50614e-20)
(0.420963 -0.321767 6.07136e-19)
(0.413514 -0.263744 -7.34732e-19)
(0.394808 -0.210419 -1.15638e-19)
(0.374237 -0.135274 4.09249e-19)
(0.387537 -0.0220517 -2.4298e-19)
(0.43809 0.106655 -1.61024e-19)
(0.503889 0.215573 1.22051e-19)
(0.564951 0.296627 1.20721e-19)
(0.603883 0.348004 0)
(0.616289 0.384112 -7.11942e-20)
(0.60658 0.392283 0)
(0.578035 0.387936 -9.0055e-20)
(0.538257 0.375516 -2.54961e-20)
(0.495706 0.3575 -1.22773e-19)
(0.455229 0.336268 -3.6636e-20)
(0.418397 0.313014 0)
(0.385098 0.287871 3.50353e-20)
(0.354663 0.260419 -1.37782e-20)
(0.326576 0.230048 -1.31994e-20)
(0.300938 0.196265 -4.7635e-21)
(0.278427 0.158799 3.50656e-21)
(0.260386 0.117174 7.49443e-21)
(0.247764 0.0720279 1.10198e-20)
(0.24046 0.0259629 -1.00589e-20)
(0.242305 -0.0216459 -3.93093e-20)
(0.260044 -0.0736895 1.58155e-20)
(0.294666 -0.126646 1.09228e-20)
(0.33994 -0.171391 6.71812e-21)
(0.389456 -0.200684 -8.37799e-21)
(0.439863 -0.211857 2.16199e-21)
(0.488376 -0.205045 -9.41571e-21)
(0.532621 -0.181104 2.37413e-20)
(0.567481 -0.143307 -1.64929e-20)
(0.586831 -0.100097 3.03091e-21)
(0.588563 -0.0616594 -2.69577e-21)
(0.575645 -0.036477 0)
(0.55614 -0.0275026 0)
(0.539642 -0.0303535 0)
(0.531728 -0.038173 -1.75275e-20)
(0.532338 -0.0455436 0)
(0.539238 -0.0492022 -3.59625e-20)
(0.54955 -0.0472953 0)
(0.190037 -0.431621 8.872e-19)
(0.356991 -0.432641 9.98463e-19)
(0.311908 -0.473479 -1.47864e-18)
(0.337064 -0.470983 9.30581e-19)
(0.362065 -0.472567 -1.63173e-19)
(0.381556 -0.468552 0)
(0.399427 -0.454123 -2.65934e-19)
(0.415471 -0.429831 -7.33695e-19)
(0.430635 -0.393711 1.05977e-18)
(0.443951 -0.342629 0)
(0.459893 -0.274353 0)
(0.46219 -0.196749 0)
(0.458411 -0.116793 -5.57404e-19)
(0.456802 -0.0245398 3.84156e-19)
(0.470772 0.0814596 1.57956e-19)
(0.502461 0.189496 -1.35815e-19)
(0.540111 0.282475 0)
(0.571185 0.357744 1.14244e-19)
(0.584791 0.406298 6.49557e-20)
(0.577944 0.436511 -1.47649e-19)
(0.552737 0.433551 -4.27399e-21)
(0.513428 0.420621 2.61211e-19)
(0.468972 0.399257 0)
(0.425012 0.373249 3.85282e-20)
(0.384536 0.345334 -8.55466e-20)
(0.347951 0.316182 -2.57417e-20)
(0.314229 0.284947 5.19127e-20)
(0.282486 0.250467 -7.48369e-21)
(0.252983 0.211521 5.46629e-21)
(0.226882 0.167569 0)
(0.203553 0.121163 -1.79895e-20)
(0.187373 0.0680489 1.65061e-20)
(0.19324 -0.00473101 0)
(0.226749 -0.0927674 -1.4916e-20)
(0.27663 -0.172813 4.40942e-20)
(0.331581 -0.230953 -9.02275e-21)
(0.387917 -0.266378 1.93363e-21)
(0.445944 -0.281197 1.88117e-20)
(0.505131 -0.274711 -3.27793e-21)
(0.559779 -0.242472 4.70517e-20)
(0.599072 -0.188958 -9.62888e-20)
(0.617195 -0.127172 8.89948e-21)
(0.61527 -0.0683011 4.02073e-20)
(0.595673 -0.0256488 0)
(0.566638 -0.00844418 1.6361e-21)
(0.540777 -0.012587 -2.34822e-22)
(0.525378 -0.027885 6.5736e-22)
(0.522653 -0.0450069 1.50247e-20)
(0.531252 -0.0569295 3.65511e-20)
(0.547752 -0.0605873 0)
(0.164583 -0.358691 8.56801e-19)
(0.277154 -0.370215 -7.52902e-19)
(0.272749 -0.426945 6.73427e-19)
(0.298565 -0.463331 -1.75788e-18)
(0.320425 -0.488988 1.45819e-18)
(0.340212 -0.493966 -1.67507e-19)
(0.361858 -0.491569 3.14622e-19)
(0.382812 -0.480304 1.44176e-19)
(0.40467 -0.456337 1.33086e-19)
(0.427201 -0.418834 0)
(0.450058 -0.366559 1.067e-18)
(0.473459 -0.296088 -5.52278e-19)
(0.493493 -0.208819 1.80517e-19)
(0.509038 -0.112453 0)
(0.515606 -0.01187 5.63227e-19)
(0.518842 0.0925923 -3.71301e-19)
(0.527559 0.195847 3.09388e-19)
(0.541202 0.291977 -6.50893e-19)
(0.553411 0.374284 3.29754e-19)
(0.557269 0.433395 0)
(0.546786 0.475678 -8.31195e-20)
(0.52009 0.479648 3.42678e-20)
(0.480322 0.468001 0)
(0.433533 0.44307 0)
(0.386572 0.411748 -7.99098e-20)
(0.343104 0.379043 4.63259e-20)
(0.303213 0.34609 1.96803e-20)
(0.265342 0.311416 1.84443e-20)
(0.228932 0.272376 -1.34539e-20)
(0.193254 0.229498 1.04212e-20)
(0.158141 0.181527 -8.6772e-21)
(0.140671 0.105497 -7.5313e-21)
(0.158193 -0.00895287 1.1173e-20)
(0.200367 -0.127527 0)
(0.252483 -0.221115 -2.06382e-20)
(0.30794 -0.285931 0)
(0.365729 -0.328955 -1.91644e-21)
(0.429623 -0.354212 -2.4052e-20)
(0.501566 -0.357126 5.18254e-20)
(0.572895 -0.325475 -4.6476e-20)
(0.646462 -0.253169 5.39291e-20)
(0.670476 -0.159245 0)
(0.661427 -0.067373 -2.89845e-20)
(0.627463 -0.000789237 -1.68059e-20)
(0.578073 0.0268522 5.02566e-20)
(0.536161 0.0204402 3.4465e-21)
(0.510555 -0.00643023 1.67407e-20)
(0.503156 -0.0395469 -1.64928e-20)
(0.51352 -0.06677 -6.39062e-22)
(0.53881 -0.0794439 2.2228e-20)
(0.0983039 -0.190365 9.90354e-20)
(0.171625 -0.269155 0)
(0.201243 -0.338316 1.41451e-19)
(0.223988 -0.399574 -5.87425e-20)
(0.250548 -0.446059 0)
(0.273583 -0.481517 1.47175e-19)
(0.298141 -0.499753 -1.47611e-19)
(0.320441 -0.505107 1.07115e-18)
(0.344524 -0.499953 -1.44686e-18)
(0.371227 -0.48067 -1.16153e-18)
(0.400733 -0.44735 7.64885e-19)
(0.431788 -0.394625 -1.29486e-18)
(0.463505 -0.322428 1.50624e-18)
(0.494517 -0.229843 -7.58892e-19)
(0.519431 -0.119751 -1.42402e-19)
(0.538984 -0.00121185 0)
(0.547618 0.115971 0)
(0.547222 0.225717 -1.412e-19)
(0.546533 0.324523 -1.47059e-19)
(0.542254 0.407882 3.83977e-19)
(0.532378 0.47317 -2.47973e-20)
(0.513378 0.514559 1.44494e-19)
(0.481343 0.528184 -2.56177e-19)
(0.438095 0.516479 0)
(0.389416 0.487459 1.15519e-19)
(0.34097 0.451386 -1.09074e-19)
(0.295259 0.415039 -1.03247e-19)
(0.251557 0.37924 9.77461e-20)
(0.208537 0.341404 -3.86041e-20)
(0.162392 0.302422 2.26016e-20)
(0.1179 0.24755 -2.33123e-20)
(0.103413 0.137635 1.96197e-21)
(0.123996 -0.0129708 3.65443e-21)
(0.162093 -0.151678 -1.98609e-22)
(0.210401 -0.257116 2.4172e-21)
(0.263896 -0.330205 -4.30009e-21)
(0.319845 -0.383205 -6.14376e-21)
(0.382028 -0.42328 5.75398e-20)
(0.455276 -0.440763 -5.91195e-20)
(0.530185 -0.417553 -9.20806e-20)
(0.614331 -0.331528 2.66997e-20)
(0.667999 -0.191382 0)
(0.659372 -0.0486218 -1.97027e-20)
(0.626614 0.0502176 9.37804e-20)
(0.564514 0.090413 -8.48195e-20)
(0.508818 0.0785506 0)
(0.473849 0.0330712 7.96002e-21)
(0.462904 -0.0244704 7.29797e-22)
(0.479718 -0.0773765 -5.80028e-23)
(0.526139 -0.120054 -2.22324e-20)
(0.0295477 -0.0534091 1.30808e-18)
(0.0452368 -0.158293 -9.77705e-19)
(0.0901475 -0.239074 3.37982e-19)
(0.116271 -0.318339 5.75065e-20)
(0.148786 -0.384275 0)
(0.176341 -0.441194 8.72496e-19)
(0.206391 -0.483496 -7.94528e-19)
(0.231721 -0.510728 5.17295e-20)
(0.257186 -0.521159 -7.71023e-19)
(0.283991 -0.523843 9.67569e-19)
(0.314022 -0.512028 1.30516e-19)
(0.347043 -0.478821 -9.88972e-19)
(0.383158 -0.42579 -5.96858e-20)
(0.421815 -0.349731 1.98086e-18)
(0.460589 -0.250354 -1.71017e-18)
(0.496189 -0.128878 6.89647e-22)
(0.525883 0.00864057 1.85086e-19)
(0.536926 0.148643 1.43385e-19)
(0.535829 0.276019 1.75628e-19)
(0.528547 0.381706 -2.31951e-19)
(0.51596 0.465694 1.12804e-19)
(0.497277 0.530095 0)
(0.469769 0.569269 2.82752e-19)
(0.431354 0.579588 -1.94654e-19)
(0.384604 0.562379 0)
(0.335107 0.527965 0)
(0.28627 0.488965 -1.80303e-20)
(0.238728 0.4516 0)
(0.190776 0.416412 0)
(0.135972 0.382642 -3.25195e-20)
(0.0865805 0.316632 2.31147e-20)
(0.0719839 0.175171 -4.39195e-20)
(0.0837588 -0.00295853 -3.51706e-20)
(0.113147 -0.164167 -1.6467e-20)
(0.157959 -0.286143 1.02071e-20)
(0.209057 -0.367764 0)
(0.259739 -0.426444 3.52669e-20)
(0.310572 -0.477024 -4.59702e-20)
(0.366855 -0.504472 2.34394e-20)
(0.42758 -0.484383 9.19124e-20)
(0.487979 -0.387365 -4.84065e-20)
(0.54168 -0.20873 4.40276e-20)
(0.559275 -0.0176068 0)
(0.527198 0.119477 -2.05108e-19)
(0.471424 0.176093 5.38994e-20)
(0.420475 0.157406 0)
(0.390037 0.0883766 -8.23285e-21)
(0.390352 -0.00683219 -1.00444e-22)
(0.410396 -0.112304 -6.94235e-21)
(0.453813 -0.170858 -2.15786e-20)
(-0.0455724 0.0703577 -7.49639e-19)
(-0.0719366 -0.0475506 0)
(-0.0161304 -0.126847 0)
(0.00249152 -0.223054 2.43436e-20)
(0.0326763 -0.304506 2.03988e-20)
(0.0593536 -0.381893 0)
(0.0944471 -0.444472 -6.46538e-19)
(0.125553 -0.490991 1.26222e-18)
(0.155551 -0.521443 -7.63289e-19)
(0.182426 -0.536343 7.79617e-19)
(0.21064 -0.540125 -9.57114e-21)
(0.240819 -0.529252 -1.72241e-18)
(0.273283 -0.497715 1.7874e-18)
(0.308892 -0.441975 -1.08079e-18)
(0.348052 -0.358602 1.12585e-18)
(0.389097 -0.249916 -8.86793e-19)
(0.431785 -0.118925 5.27738e-19)
(0.469093 0.0336739 -1.3889e-18)
(0.486414 0.192174 5.48512e-19)
(0.485387 0.334705 9.37306e-20)
(0.475736 0.450278 0)
(0.461579 0.538552 -7.25755e-20)
(0.441079 0.603763 5.61413e-20)
(0.409537 0.636205 -6.61203e-20)
(0.367764 0.635364 -2.05191e-19)
(0.322121 0.607855 1.92708e-19)
(0.274906 0.567222 5.81451e-20)
(0.226844 0.526277 0)
(0.176384 0.493402 2.65368e-20)
(0.116813 0.46457 -7.35722e-20)
(0.0657347 0.387439 2.57685e-20)
(0.0454845 0.223217 4.31084e-20)
(0.0446789 0.0206935 3.50417e-20)
(0.0673237 -0.169691 -2.83724e-20)
(0.109826 -0.314219 -4.16171e-20)
(0.158346 -0.4026 0)
(0.201913 -0.45824 -4.28688e-20)
(0.235043 -0.506729 4.89783e-20)
(0.261882 -0.532412 -5.70495e-20)
(0.286108 -0.512454 -4.90265e-20)
(0.30839 -0.401781 -1.30099e-20)
(0.329937 -0.199747 5.25319e-20)
(0.340511 0.0237322 4.30567e-20)
(0.320482 0.188375 7.4608e-20)
(0.287554 0.256029 0)
(0.264341 0.224346 -3.73908e-21)
(0.259731 0.122316 3.6122e-21)
(0.26923 -0.000378261 -2.18532e-22)
(0.265763 -0.0954844 6.77142e-21)
(0.262977 -0.144275 2.22441e-20)
(-0.106944 0.162977 -4.19709e-18)
(-0.152555 0.0447028 3.82502e-18)
(-0.0768399 -0.00683521 -1.41772e-18)
(-0.0755298 -0.104934 -2.82606e-20)
(-0.0620788 -0.197379 -3.57543e-20)
(-0.0404721 -0.294242 0)
(-0.012792 -0.379007 0)
(0.0186294 -0.445306 -3.2549e-20)
(0.0516819 -0.492535 3.3597e-20)
(0.07872 -0.525029 1.5013e-20)
(0.10366 -0.544933 -5.93448e-19)
(0.128047 -0.552277 5.43725e-19)
(0.152303 -0.544782 8.95962e-20)
(0.177851 -0.51472 0)
(0.205521 -0.456714 -1.03039e-18)
(0.235554 -0.366215 -1.06805e-18)
(0.269638 -0.251476 2.06669e-18)
(0.312208 -0.107647 2.0945e-18)
(0.357004 0.0616715 -1.54344e-18)
(0.375834 0.225375 0)
(0.378262 0.370472 -5.9683e-20)
(0.375888 0.490671 1.22773e-19)
(0.368839 0.586242 -5.79717e-20)
(0.352532 0.660741 5.25692e-20)
(0.325594 0.680451 0)
(0.292796 0.670771 -2.96613e-20)
(0.256317 0.639818 1.36414e-19)
(0.216099 0.600636 -1.49571e-19)
(0.170462 0.571016 9.21672e-20)
(0.112966 0.54848 -2.18448e-19)
(0.0616888 0.472889 7.15074e-20)
(0.0307749 0.299792 6.86729e-20)
(0.0223139 0.06798 0)
(0.0409856 -0.164089 3.47585e-21)
(0.0808465 -0.341468 4.17214e-20)
(0.1265 -0.439172 -2.59712e-20)
(0.163017 -0.484722 0)
(0.181434 -0.515664 3.67948e-20)
(0.178063 -0.538333 -5.68303e-20)
(0.158374 -0.504466 -1.5923e-20)
(0.133733 -0.372789 0)
(0.113112 -0.165796 9.51979e-20)
(0.103789 0.0679018 -5.01363e-21)
(0.0954404 0.242227 -3.65319e-20)
(0.0955091 0.285791 2.97379e-20)
(0.109957 0.237256 -1.77398e-20)
(0.121055 0.128529 -1.41618e-21)
(0.115569 0.0267875 -2.03988e-21)
(0.0960021 -0.0546636 5.46891e-21)
(0.077052 -0.0926325 -7.08897e-21)
(-0.0644497 0.119486 0)
(-0.0819866 0.148857 9.03933e-19)
(-0.0577105 0.16892 -1.64627e-18)
(-0.0815013 0.206221 8.02812e-19)
(-0.0939765 0.0517136 1.99612e-20)
(-0.0592532 -0.107527 0)
(-0.0608858 -0.254825 0)
(-0.0514998 -0.376134 0)
(-0.0357185 -0.459843 2.67229e-19)
(-0.0151276 -0.515915 -2.55513e-19)
(0.00171299 -0.555 -2.83167e-19)
(0.0173359 -0.579778 5.83499e-19)
(0.0318928 -0.59284 -2.82251e-19)
(0.0455081 -0.589127 -7.23769e-19)
(0.0596931 -0.560587 1.08916e-18)
(0.0742055 -0.493948 -1.95824e-21)
(0.0935734 -0.394676 -4.38363e-19)
(0.10781 -0.271245 0)
(0.155679 -0.0917121 -9.46133e-19)
(0.199637 0.101702 7.71807e-19)
(0.221105 0.273329 6.28256e-19)
(0.236131 0.419569 -9.37058e-19)
(0.246524 0.539489 3.58401e-19)
(0.249249 0.639546 -2.81877e-19)
(0.241858 0.704334 3.69504e-20)
(0.228598 0.710192 3.04981e-19)
(0.21185 0.691246 -2.87439e-19)
(0.19036 0.656876 9.85059e-20)
(0.159916 0.631186 1.1845e-21)
(0.113127 0.619599 2.15822e-19)
(0.069955 0.554091 -2.40642e-19)
(0.0413199 0.384777 1.7639e-19)
(0.0334469 0.131077 7.1071e-20)
(0.0552083 -0.151469 -1.01395e-19)
(0.0907205 -0.366864 3.95373e-20)
(0.129354 -0.475016 -9.19687e-21)
(0.158603 -0.50671 1.99338e-20)
(0.166477 -0.510888 -1.77637e-20)
(0.143997 -0.505238 -1.4179e-20)
(0.0940154 -0.461671 2.87488e-20)
(0.0364174 -0.326231 1.62313e-20)
(-0.020099 -0.117218 -5.78398e-20)
(-0.0499592 0.0903465 0)
(-0.0378878 0.227385 0)
(-0.0112829 0.264451 -1.64447e-20)
(0.0133895 0.221079 -3.97079e-21)
(0.00977487 0.144931 1.24734e-20)
(-0.00208634 0.0564353 0)
(-0.0151632 -0.0266418 -6.75983e-21)
(-0.0112845 -0.0802827 8.21574e-21)
(0.0103348 0.0685319 0)
(0.0395022 0.102928 -8.33987e-19)
(0.0372578 0.120701 1.52289e-18)
(0.0312301 0.133471 -7.25872e-19)
(0.0749793 0.101499 2.56226e-20)
(0.0716567 0.00223521 0)
(0.00270633 -0.18687 0)
(-0.0515998 -0.353182 0)
(-0.0695909 -0.464322 6.76741e-19)
(-0.06903 -0.530504 -6.13377e-19)
(-0.0650313 -0.572283 -3.25084e-19)
(-0.0619834 -0.598083 3.1598e-19)
(-0.0589166 -0.608896 -1.41349e-34)
(-0.0582614 -0.611532 -7.48866e-19)
(-0.0581704 -0.586769 1.50592e-18)
(-0.0554562 -0.525793 -1.24846e-18)
(-0.0466462 -0.431699 4.18136e-19)
(-0.0424901 -0.309338 0)
(-0.0299165 -0.159758 4.40967e-34)
(0.0177259 0.0569846 0)
(0.0556313 0.245645 7.16684e-19)
(0.0854829 0.404075 -5.93557e-19)
(0.108774 0.53708 0)
(0.126829 0.644903 1.9135e-19)
(0.14064 0.706262 -3.93554e-20)
(0.150921 0.716617 9.44728e-21)
(0.156425 0.706782 -2.1512e-19)
(0.156561 0.678687 -9.2944e-20)
(0.144016 0.676979 -5.58429e-21)
(0.119448 0.663863 3.49537e-19)
(0.0977199 0.587993 -3.16952e-19)
(0.0860911 0.399495 3.51431e-19)
(0.106283 0.120621 2.65082e-21)
(0.137942 -0.175738 -1.24335e-19)
(0.164678 -0.402466 4.95416e-20)
(0.186366 -0.501868 -7.00407e-20)
(0.200416 -0.518113 7.60177e-20)
(0.1944 -0.494955 -1.80091e-20)
(0.16018 -0.459047 9.1003e-21)
(0.103439 -0.398913 -3.75505e-21)
(0.0421114 -0.269692 1.38999e-20)
(-0.00189553 -0.0875611 -1.95283e-20)
(-0.0251267 0.0884321 6.55812e-21)
(-0.0270932 0.205565 -5.71742e-21)
(-0.0220529 0.243737 -9.01287e-21)
(-0.0297783 0.224288 1.66515e-35)
(-0.0551134 0.162983 2.2604e-20)
(-0.0687747 0.0671436 -2.19172e-21)
(-0.0696003 -0.0283156 -1.98288e-20)
(-0.0371226 -0.0902323 1.5315e-20)
(0.0756387 0.0943024 4.60361e-18)
(0.146584 0.0675179 -4.27392e-18)
(0.163795 0.0748752 1.86998e-18)
(0.167691 0.0610946 -5.06429e-20)
(0.139334 -0.0384619 -5.88694e-20)
(0.0461697 -0.224724 0)
(-0.0373934 -0.393015 0)
(-0.0825792 -0.497512 -4.09248e-20)
(-0.100911 -0.554403 3.9558e-20)
(-0.109689 -0.586516 1.73156e-20)
(-0.118041 -0.605295 6.48418e-19)
(-0.127737 -0.615587 -6.27591e-19)
(-0.137241 -0.609676 8.74412e-20)
(-0.14712 -0.583733 0)
(-0.155403 -0.52851 7.30293e-19)
(-0.158139 -0.443513 1.01433e-18)
(-0.156191 -0.329981 -1.73841e-18)
(-0.143603 -0.178301 -1.72429e-18)
(-0.128791 -0.0110639 1.74664e-18)
(-0.102756 0.154102 0)
(-0.0683548 0.314113 -6.96668e-20)
(-0.0336286 0.455084 1.38568e-19)
(-0.00042413 0.570937 -6.28715e-20)
(0.033084 0.65325 5.92696e-20)
(0.0669823 0.692323 3.00594e-19)
(0.0975997 0.698118 -3.10716e-19)
(0.122969 0.684041 -2.34403e-19)
(0.142725 0.671156 1.89291e-19)
(0.15358 0.671918 -2.36497e-19)
(0.162622 0.651357 1.76727e-19)
(0.175661 0.543959 3.97819e-19)
(0.20425 0.325945 -2.73338e-19)
(0.254503 0.0370041 2.21924e-19)
(0.289319 -0.24109 -1.41375e-19)
(0.30011 -0.439176 -8.92515e-20)
(0.294042 -0.515677 2.51191e-19)
(0.279224 -0.501519 -1.02759e-19)
(0.251424 -0.450572 -4.70631e-20)
(0.204799 -0.392322 4.28376e-20)
(0.145909 -0.32119 -1.7149e-20)
(0.092239 -0.195573 0)
(0.0546175 -0.0314461 5.91756e-21)
(0.0402738 0.115039 -2.47129e-21)
(0.0338526 0.212215 2.8196e-21)
(0.0316219 0.252846 -5.14879e-22)
(0.0117318 0.2445 2.13041e-20)
(-0.0167244 0.17822 -4.90464e-20)
(-0.0308883 0.0614334 1.33156e-20)
(-0.0271835 -0.0638783 2.3942e-20)
(0.0275704 -0.133446 -1.70911e-20)
(0.0990349 0.126241 0)
(0.194848 0.116655 0)
(0.147885 0.0945131 0)
(0.039775 -0.07412 4.21496e-20)
(-0.0724112 -0.318432 3.02338e-20)
(-0.13862 -0.48292 0)
(-0.155237 -0.550169 7.47855e-19)
(-0.15612 -0.571657 -1.4351e-18)
(-0.160285 -0.583335 5.57815e-19)
(-0.173275 -0.594157 -7.83511e-19)
(-0.189695 -0.593577 -1.65844e-19)
(-0.205255 -0.581638 1.62159e-18)
(-0.219807 -0.550551 -1.81443e-18)
(-0.234656 -0.499064 7.67615e-19)
(-0.245944 -0.425208 -8.61035e-19)
(-0.24826 -0.325351 9.24119e-19)
(-0.245837 -0.207976 -1.19127e-18)
(-0.236678 -0.0782208 7.67e-19)
(-0.218266 0.0635238 1.25404e-18)
(-0.190845 0.208127 -9.3102e-19)
(-0.155072 0.346162 0)
(-0.113897 0.465108 -8.26238e-20)
(-0.0687043 0.556104 6.22747e-20)
(-0.0191851 0.613453 -3.47974e-19)
(0.0325169 0.63985 4.87467e-19)
(0.0813407 0.643413 -2.07977e-19)
(0.125825 0.637594 7.43999e-20)
(0.166281 0.641726 0)
(0.201454 0.645852 -1.49757e-19)
(0.247859 0.603732 3.88271e-19)
(0.302191 0.462301 -5.37467e-19)
(0.371821 0.227762 4.32724e-19)
(0.435463 -0.0494092 1.84931e-19)
(0.460032 -0.292087 -7.7986e-20)
(0.446156 -0.445753 -1.01856e-19)
(0.409178 -0.474813 0)
(0.364253 -0.444699 -3.67338e-22)
(0.315359 -0.380601 -1.48231e-21)
(0.261723 -0.313021 6.47932e-21)
(0.205184 -0.242502 -6.86843e-21)
(0.163891 -0.131075 -1.92178e-21)
(0.145483 0.0147589 7.52741e-21)
(0.144512 0.14636 2.1214e-21)
(0.149206 0.239616 -3.31506e-21)
(0.153693 0.288454 0)
(0.153371 0.285365 1.53162e-20)
(0.156492 0.221196 -2.34362e-20)
(0.183939 0.0955565 8.76332e-21)
(0.212288 -0.0559371 1.26322e-19)
(0.24184 -0.150465 7.33807e-20)
(0.131332 0.141128 -2.58242e-18)
(0.1285 0.0899316 2.20997e-18)
(-0.0216444 -0.136058 -8.63968e-19)
(-0.136992 -0.3834 -1.04676e-18)
(-0.184294 -0.512477 -6.59477e-20)
(-0.189486 -0.544414 -7.70643e-20)
(-0.189574 -0.555248 8.64901e-19)
(-0.199785 -0.563272 9.97727e-19)
(-0.216481 -0.574177 2.86694e-19)
(-0.234809 -0.576601 -9.02494e-19)
(-0.253149 -0.566462 1.16803e-19)
(-0.270994 -0.541075 1.18514e-19)
(-0.288044 -0.498431 1.02073e-18)
(-0.303582 -0.439227 -1.79599e-18)
(-0.315418 -0.362663 1.75847e-18)
(-0.321012 -0.267403 -6.76776e-21)
(-0.314712 -0.154783 1.71864e-19)
(-0.301113 -0.0305073 -1.05209e-18)
(-0.276678 0.09828 1.93196e-19)
(-0.243395 0.224384 -2.45384e-19)